
     Program PWSCF v.6.1 starts on 12Jan2023 at  6:52:25 

     This program is part of the open-source Quantum ESPRESSO suite
     for quantum simulation of materials; please cite
         "P. Giannozzi et al., J. Phys.:Condens. Matter 21 395502 (2009);
          URL http://www.quantum-espresso.org", 
     in publications or presentations arising from this work. More details at
     http://www.quantum-espresso.org/quote

     Parallel version (MPI & OpenMP), running on      10 processor cores
     Number of MPI processes:                10
     Threads/MPI process:                     1
     R & G space division:  proc/nbgrp/npool/nimage =      10
     Reading input from espresso.in

     Current dimensions of program PWSCF are:
     Max number of different atomic species (ntypx) = 10
     Max number of k-points (npk) =  40000
     Max angular momentum in pseudopotentials (lmaxx) =  3
               file O.pbe-rrkjus.UPF: wavefunction(s)  2S renormalized

     gamma-point specific algorithms are used

     Subspace diagonalization in iterative solution of the eigenvalue problem:
     a serial algorithm will be used


     Parallelization info
     --------------------
     sticks:   dense  smooth     PW     G-vecs:    dense   smooth      PW
     Min        1372     609    151                83541    24758    3104
     Max        1377     612    152                83544    24764    3108
     Sum       13741    6109   1519               835431   247617   31045


     Title: 
     zno_al4_crystal_opted(SCF)                                                 


     bravais-lattice index     =            0
     lattice parameter (alat)  =      29.7710  a.u.
     unit-cell volume          =   14659.4174 (a.u.)^3
     number of atoms/cell      =          200
     number of atomic types    =            3
     number of electrons       =      1760.00
     number of Kohn-Sham states=         1320
     kinetic-energy cutoff     =      25.0000  Ry
     charge density cutoff     =     225.0000  Ry
     convergence threshold     =      1.0E-06
     mixing beta               =       0.7000
     number of iterations used =            8  plain     mixing
     Exchange-correlation      =  SLA  PW   PBE  PBE ( 1  4  3  4 0 0)

     celldm(1)=  29.770991  celldm(2)=   0.000000  celldm(3)=   0.000000
     celldm(4)=   0.000000  celldm(5)=   0.000000  celldm(6)=   0.000000

     crystal axes: (cart. coord. in units of alat)
               a(1) = (   1.000000   0.000049  -0.000042 )  
               a(2) = (  -0.499958   0.866050   0.000042 )  
               a(3) = (  -0.000027   0.000016   0.641478 )  

     reciprocal axes: (cart. coord. in units 2 pi/alat)
               b(1) = (  0.999972  0.577269  0.000028 )  
               b(2) = ( -0.000056  1.154635 -0.000028 )  
               b(3) = (  0.000066 -0.000038  1.558900 )  


     PseudoPot. # 1 for Zn read from file:
     C:\Users\Dimas\.burai\.pseudopot/Zn.pbe-van.UPF
     MD5 check sum: 8a117cd81793830d6ad9bd6443d05479
     Pseudo is Ultrasoft, Zval = 12.0
     Generated by new atomic code, or converted to UPF format
     Using radial grid of  869 points,  6 beta functions with: 
                l(1) =   0
                l(2) =   0
                l(3) =   1
                l(4) =   1
                l(5) =   2
                l(6) =   2
     Q(r) pseudized with  8 coefficients,  rinner =    0.800   0.800   0.800
                                                       0.800   0.800

     PseudoPot. # 2 for O  read from file:
     C:\Users\Dimas\.burai\.pseudopot/O.pbe-rrkjus.UPF
     MD5 check sum: 390ba29e75625707450f3bd3f0eb6be9
     Pseudo is Ultrasoft, Zval =  6.0
     Generated by new atomic code, or converted to UPF format
     Using radial grid of 1269 points,  4 beta functions with: 
                l(1) =   0
                l(2) =   0
                l(3) =   1
                l(4) =   1
     Q(r) pseudized with 0 coefficients 


     PseudoPot. # 3 for Al read from file:
     C:\Users\Dimas\.burai\.pseudopot/Al.pbe-rrkj.UPF
     MD5 check sum: b5320f8fdc07ab0d74f109f4aa58256b
     Pseudo is Norm-conserving, Zval =  3.0
     Generated by new atomic code, or converted to UPF format
     Using radial grid of  879 points,  4 beta functions with: 
                l(1) =   0
                l(2) =   0
                l(3) =   1
                l(4) =   1

     atomic species   valence    mass     pseudopotential
        Zn            12.00    65.39000     Zn( 1.00)
        O              6.00    15.99940     O ( 1.00)
        Al             3.00    26.98154     Al( 1.00)


     Simplified LDA+U calculation (l_max = 2) with parameters (eV):
     atomic species    L          U    alpha       J0     beta
        Zn             2    10.5000   0.0000   0.0000   0.0000
        O              1     7.0000   0.0000   0.0000   0.0000



      2 Sym. Ops. (no inversion) found



   Cartesian axes

     site n.     atom                  positions (alat units)
         1           Zn  tau(   1) = (   0.1001796   0.0580176   0.1604180  )
         2           Zn  tau(   2) = (  -0.0000864   0.1149679   0.6413627  )
         3           O   tau(   3) = (   0.1005714   0.0582215   0.2831840  )
         4           O   tau(   4) = (   0.0001405   0.1160985   0.1222082  )
         5           Zn  tau(   5) = (   0.1000876   0.0571498   0.4802942  )
         6           Zn  tau(   6) = (  -0.0005748   0.1154468   0.3197244  )
         7           O   tau(   7) = (   0.1006415   0.0584086   0.6021602  )
         8           O   tau(   8) = (   0.0011186   0.1157417   0.4421786  )
         9           Zn  tau(   9) = (  -0.0003280   0.2309296   0.1607651  )
        10           Zn  tau(  10) = (  -0.0990949   0.2880376   0.6405711  )
        11           O   tau(  11) = (   0.0000089   0.2320827   0.2833214  )
        12           O   tau(  12) = (  -0.1000450   0.2900567   0.1218516  )
        13           Zn  tau(  13) = (   0.0000265   0.2305044   0.4804700  )
        14           Zn  tau(  14) = (  -0.1009949   0.2891703   0.3205648  )
        15           O   tau(  15) = (   0.0013784   0.2308122   0.6024329  )
        16           O   tau(  16) = (  -0.0988105   0.2893960   0.4430691  )
        17           Zn  tau(  17) = (  -0.0997835   0.4045518   0.1603764  )
        18           Zn  tau(  18) = (  -0.1999689   0.4618477   0.6402332  )
        19           O   tau(  19) = (  -0.0997416   0.4050883   0.2821219  )
        20           O   tau(  20) = (  -0.1997546   0.4608919   0.1214154  )
        21           Zn  tau(  21) = (  -0.1001440   0.4049060   0.4815330  )
        22           Zn  tau(  22) = (  -0.2007065   0.4614640   0.3211121  )
        23           O   tau(  23) = (  -0.0988702   0.4043340   0.6041367  )
        24           O   tau(  24) = (  -0.2003636   0.4620594   0.4434008  )
        25           Zn  tau(  25) = (  -0.1998136   0.5766038   0.1596869  )
        26           Zn  tau(  26) = (  -0.3009724   0.6354266   0.6409813  )
        27           O   tau(  27) = (  -0.1987057   0.5767367   0.2816575  )
        28           O   tau(  28) = (  -0.2988027   0.6345098   0.1220223  )
        29           Zn  tau(  29) = (  -0.2003285   0.5779549   0.4811187  )
        30           Zn  tau(  30) = (  -0.2990295   0.6349278   0.3198220  )
        31           O   tau(  31) = (  -0.1999607   0.5778696   0.6038989  )
        32           O   tau(  32) = (  -0.3011141   0.6349714   0.4424464  )
        33           Zn  tau(  33) = (  -0.3000791   0.7506504   0.1597742  )
        34           Zn  tau(  34) = (  -0.4006505   0.8087154   0.6413264  )
        35           O   tau(  35) = (  -0.2993987   0.7502576   0.2820450  )
        36           O   tau(  36) = (  -0.4003092   0.8085183   0.1222181  )
        37           Zn  tau(  37) = (  -0.2996321   0.7503924   0.4812079  )
        38           Zn  tau(  38) = (  -0.3994775   0.8080381   0.3195270  )
        39           O   tau(  39) = (  -0.3004997   0.7508933   0.6032953  )
        40           O   tau(  40) = (  -0.3996342   0.8081286   0.4422713  )
        41           Zn  tau(  41) = (   0.2999926   0.0573726   0.1601639  )
        42           Zn  tau(  42) = (   0.1996381   0.1155189   0.0003075  )
        43           O   tau(  43) = (   0.2998359   0.0579636   0.2829281  )
        44           O   tau(  44) = (   0.2005041   0.1172420   0.1217052  )
        45           Zn  tau(  45) = (   0.2999461   0.0577389   0.4806899  )
        46           Zn  tau(  46) = (   0.2000862   0.1151379   0.3200444  )
        47           O   tau(  47) = (   0.2994325   0.0590020   0.6026208  )
        48           O   tau(  48) = (   0.2002154   0.1251562   0.4454818  )
        49           Zn  tau(  49) = (   0.1998480   0.2315855   0.1620480  )
        50           Zn  tau(  50) = (   0.1002400   0.2878204   0.0001971  )
        51           O   tau(  51) = (   0.2000859   0.2317444   0.2842297  )
        52           O   tau(  52) = (   0.1002140   0.2896872   0.1217669  )
        53           Al  tau(  53) = (   0.2002441   0.2311836   0.4806245  )
        54           Zn  tau(  54) = (   0.0992796   0.2891533   0.3205879  )
        55           O   tau(  55) = (   0.2005974   0.2315328   0.5929608  )
        56           O   tau(  56) = (   0.1084727   0.2849831   0.4458796  )
        57           Zn  tau(  57) = (   0.0998000   0.4041554   0.1609864  )
        58           Zn  tau(  58) = (   0.0006145   0.4611794   0.6411876  )
        59           O   tau(  59) = (   0.0993968   0.4046451   0.2831899  )
        60           O   tau(  60) = (   0.0005092   0.4709283   0.1251015  )
        61           Zn  tau(  61) = (   0.1003805   0.4043780   0.4815137  )
        62           Zn  tau(  62) = (  -0.0007544   0.4624074   0.3211941  )
        63           O   tau(  63) = (   0.1006033   0.4034474   0.6037896  )
        64           O   tau(  64) = (   0.0012959   0.4618328   0.4426624  )
        65           Al  tau(  65) = (   0.0000550   0.5773679   0.1599665  )
        66           Zn  tau(  66) = (  -0.1003049   0.6353108   0.6406983  )
        67           O   tau(  67) = (   0.0002902   0.5772321   0.2722643  )
        68           O   tau(  68) = (  -0.0918130   0.6304079   0.1247834  )
        69           Zn  tau(  69) = (   0.0003564   0.5771939   0.4828916  )
        70           Zn  tau(  70) = (  -0.1000170   0.6351445   0.3209369  )
        71           O   tau(  71) = (   0.0006422   0.5770289   0.6050072  )
        72           O   tau(  72) = (  -0.0987846   0.6344330   0.4424437  )
        73           Zn  tau(  73) = (  -0.0992176   0.7508412   0.1596869  )
        74           Zn  tau(  74) = (  -0.2007390   0.8090360   0.6409813  )
        75           O   tau(  75) = (  -0.0987787   0.7498153   0.2816575  )
        76           O   tau(  76) = (  -0.1988602   0.8076152   0.1220223  )
        77           Zn  tau(  77) = (  -0.1006451   0.7506117   0.4811187  )
        78           Zn  tau(  78) = (  -0.1993355   0.8076027   0.3198220  )
        79           O   tau(  79) = (  -0.1003873   0.7503358   0.6038989  )
        80           O   tau(  80) = (  -0.2004156   0.8093863   0.4424464  )
        81           Zn  tau(  81) = (   0.5001146   0.0574568   0.1596988  )
        82           Zn  tau(  82) = (   0.3997336   0.1152905   0.0000983  )
        83           O   tau(  83) = (   0.5008090   0.0585554   0.2816296  )
        84           O   tau(  84) = (   0.4005340   0.1160306   0.1223922  )
        85           Zn  tau(  85) = (   0.4997781   0.0580917   0.4812018  )
        86           Zn  tau(  86) = (   0.4003301   0.1148134   0.3203747  )
        87           O   tau(  87) = (   0.5002395   0.0584593   0.6039242  )
        88           O   tau(  88) = (   0.3993881   0.1164012   0.4427681  )
        89           Zn  tau(  89) = (   0.3997080   0.2307222   0.1606688  )
        90           Zn  tau(  90) = (   0.2993426   0.2892098   0.0006481  )
        91           O   tau(  91) = (   0.4008194   0.2313150   0.2829492  )
        92           O   tau(  92) = (   0.3003905   0.2892422   0.1221741  )
        93           Zn  tau(  93) = (   0.3999835   0.2303282   0.4821775  )
        94           Zn  tau(  94) = (   0.3009256   0.2879333   0.3203253  )
        95           O   tau(  95) = (   0.3992434   0.2319282   0.6042001  )
        96           O   tau(  96) = (   0.2928857   0.2850043   0.4459854  )
        97           Zn  tau(  97) = (   0.2993039   0.4045964   0.1618562  )
        98           Zn  tau(  98) = (   0.2002805   0.4617676   0.0005865  )
        99           O   tau(  99) = (   0.3007942   0.4037360   0.2848256  )
       100           O   tau( 100) = (   0.1994354   0.4622556   0.1228895  )
       101           Zn  tau( 101) = (   0.3002085   0.4040742   0.4805848  )
       102           Zn  tau( 102) = (   0.1998366   0.4620240   0.3205782  )
       103           O   tau( 103) = (   0.3000744   0.4041516   0.6021333  )
       104           O   tau( 104) = (   0.2008424   0.4614433   0.4429696  )
       105           Zn  tau( 105) = (   0.1999339   0.5775925   0.1609864  )
       106           Zn  tau( 106) = (   0.1009570   0.6349776   0.6411876  )
       107           O   tau( 107) = (   0.1993083   0.5776968   0.2831899  )
       108           O   tau( 108) = (   0.0924615   0.6301943   0.1251015  )
       109           Zn  tau( 109) = (   0.2000314   0.5769785   0.4815137  )
       110           Zn  tau( 110) = (   0.0992090   0.6355492   0.3211941  )
       111           O   tau( 111) = (   0.2009488   0.5772508   0.6037896  )
       112           O   tau( 112) = (   0.1007318   0.6340608   0.4426624  )
       113           Zn  tau( 113) = (   0.0997989   0.7502386   0.1603764  )
       114           Zn  tau( 114) = (   0.0000865   0.8083538   0.6402332  )
       115           O   tau( 115) = (   0.0993552   0.7499341   0.2821219  )
       116           O   tau( 116) = (   0.0010214   0.8086461   0.1214154  )
       117           Zn  tau( 117) = (   0.0993119   0.7503737   0.4815330  )
       118           Zn  tau( 118) = (   0.0000500   0.8091844   0.3211121  )
       119           O   tau( 119) = (   0.1004442   0.7495566   0.6041367  )
       120           O   tau( 120) = (  -0.0002942   0.8085898   0.4434008  )
       121           Zn  tau( 121) = (   0.7002326   0.0571790   0.1595569  )
       122           Zn  tau( 122) = (   0.6002402   0.1153739   0.6408391  )
       123           O   tau( 123) = (   0.6993215   0.0582698   0.2815225  )
       124           O   tau( 124) = (   0.5999703   0.1246128   0.1247825  )
       125           Zn  tau( 125) = (   0.6996516   0.0575203   0.4807969  )
       126           Zn  tau( 126) = (   0.6003261   0.1156113   0.3210771  )
       127           O   tau( 127) = (   0.6993334   0.0576047   0.6036682  )
       128           O   tau( 128) = (   0.5994931   0.1171489   0.4424544  )
       129           Al  tau( 129) = (   0.6001955   0.2308766   0.1598232  )
       130           Zn  tau( 130) = (   0.4991021   0.2892429   0.0004562  )
       131           O   tau( 131) = (   0.5999673   0.2310084   0.2721826  )
       132           O   tau( 132) = (   0.5075371   0.2843730   0.1256081  )
       133           Zn  tau( 133) = (   0.5987210   0.2317280   0.4827683  )
       134           Zn  tau( 134) = (   0.5010806   0.2881007   0.3208449  )
       135           O   tau( 135) = (   0.5989004   0.2316244   0.6048679  )
       136           O   tau( 136) = (   0.4978400   0.2899716   0.4425616  )
       137           Zn  tau( 137) = (   0.5000855   0.4045811   0.1606688  )
       138           Zn  tau( 138) = (   0.3992510   0.4622563   0.0006481  )
       139           O   tau( 139) = (   0.5001278   0.4033222   0.2829492  )
       140           O   tau( 140) = (   0.3997469   0.4613326   0.1221741  )
       141           Zn  tau( 141) = (   0.5005645   0.4045396   0.4821775  )
       142           Zn  tau( 142) = (   0.4011481   0.4615237   0.3203253  )
       143           O   tau( 143) = (   0.4988088   0.4043805   0.6042001  )
       144           O   tau( 144) = (   0.3996647   0.4699510   0.4459854  )
       145           Zn  tau( 145) = (   0.3994079   0.5772333   0.1620480  )
       146           Zn  tau( 146) = (   0.3009030   0.6353788   0.0001971  )
       147           O   tau( 147) = (   0.3993892   0.5769479   0.2842297  )
       148           O   tau( 148) = (   0.2992733   0.6344680   0.1217669  )
       149           Al  tau( 149) = (   0.3999540   0.5770913   0.4806245  )
       150           Zn  tau( 150) = (   0.2992685   0.6355442   0.3205879  )
       151           O   tau( 151) = (   0.3998282   0.5766107   0.5929608  )
       152           O   tau( 152) = (   0.3074765   0.6296679   0.4458796  )
       153           Zn  tau( 153) = (   0.2998879   0.7509187   0.1607651  )
       154           Zn  tau( 154) = (   0.2010475   0.8078994   0.6405711  )
       155           O   tau( 155) = (   0.2990577   0.7500504   0.2833214  )
       156           O   tau( 156) = (   0.1988238   0.8077126   0.1218516  )
       157           Zn  tau( 157) = (   0.3004334   0.7508243   0.4804700  )
       158           Zn  tau( 158) = (   0.1991165   0.8089785   0.3205648  )
       159           O   tau( 159) = (   0.3008427   0.7494996   0.6024329  )
       160           O   tau( 160) = (   0.2000133   0.8069739   0.4430691  )
       161           Zn  tau( 161) = (   0.8996171   0.0580055   0.1593786  )
       162           Zn  tau( 162) = (   0.8004467   0.1152616   0.6401488  )
       163           O   tau( 163) = (   0.8994920   0.0580777   0.2817687  )
       164           O   tau( 164) = (   0.7988921   0.1161591   0.1212541  )
       165           Zn  tau( 165) = (   0.9004271   0.0575378   0.4798705  )
       166           Zn  tau( 166) = (   0.7998916   0.1155820   0.3207043  )
       167           O   tau( 167) = (   0.9002720   0.0576274   0.6022928  )
       168           O   tau( 168) = (   0.7997215   0.1156803   0.4430643  )
       169           Zn  tau( 169) = (   0.8006406   0.2310908   0.1595569  )
       170           Zn  tau( 170) = (   0.7002461   0.2885893   0.6408391  )
       171           O   tau( 171) = (   0.7992404   0.2313344   0.2815225  )
       172           O   tau( 172) = (   0.6921101   0.2842036   0.1247825  )
       173           Zn  tau( 173) = (   0.8000546   0.2314233   0.4807969  )
       174           Zn  tau( 174) = (   0.7000836   0.2883962   0.3210771  )
       175           O   tau( 175) = (   0.7998224   0.2316567   0.6036682  )
       176           O   tau( 176) = (   0.6983355   0.2883488   0.4424544  )
       177           Zn  tau( 177) = (   0.7003410   0.4042592   0.1596988  )
       178           Zn  tau( 178) = (   0.6000651   0.4622747   0.0000983  )
       179           O   tau( 179) = (   0.6997368   0.4031085   0.2816296  )
       180           O   tau( 180) = (   0.5998244   0.4612116   0.1223922  )
       181           Zn  tau( 181) = (   0.6996230   0.4042332   0.4812018  )
       182           Zn  tau( 182) = (   0.6007766   0.4619968   0.3203747  )
       183           O   tau( 183) = (   0.6995353   0.4036498   0.6039242  )
       184           O   tau( 184) = (   0.5989304   0.4620187   0.4427681  )
       185           Zn  tau( 185) = (   0.6003530   0.5776120   0.1601639  )
       186           Zn  tau( 186) = (   0.4998195   0.6354483   0.0003075  )
       187           O   tau( 187) = (   0.5997628   0.5774522   0.2829281  )
       188           O   tau( 188) = (   0.4987603   0.6338369   0.1217052  )
       189           Zn  tau( 189) = (   0.6000125   0.5774691   0.4806899  )
       190           Zn  tau( 190) = (   0.5003735   0.6352509   0.3200444  )
       191           O   tau( 191) = (   0.5986618   0.5772823   0.6026208  )
       192           O   tau( 192) = (   0.4917620   0.6301298   0.4454818  )
       193           Zn  tau( 193) = (   0.4998879   0.7503326   0.1604180  )
       194           Zn  tau( 194) = (   0.4004345   0.8086904   0.6413627  )
       195           O   tau( 195) = (   0.4999072   0.7498913   0.2831840  )
       196           O   tau( 196) = (   0.3995688   0.8079285   0.1222082  )
       197           Zn  tau( 197) = (   0.5005934   0.7508462   0.4802942  )
       198           Zn  tau( 198) = (   0.3997755   0.8088739   0.3197244  )
       199           O   tau( 199) = (   0.4997803   0.7497371   0.6021602  )
       200           O   tau( 200) = (   0.4003668   0.8072600   0.4421786  )

     number of k points=     1
                       cart. coord. in units 2pi/alat
        k(    1) = (   0.0000000   0.0000000   0.0000000), wk =   2.0000000

     Dense  grid:   417716 G-vectors     FFT dimensions: ( 144, 144,  96)

     Smooth grid:   123809 G-vectors     FFT dimensions: (  96,  96,  64)

     Estimated max dynamical RAM per process >     842.47MB

     Estimated total allocated dynamical RAM >    8424.66MB

     Initial potential from superposition of free atoms

     starting charge 1763.97504, renormalised to 1760.00000
     Number of +U iterations with fixed ns =  0
     Starting occupations:
 --- enter write_ns ---
 LDA+U parameters:
U( 1)     = 10.50000000
alpha( 1) =  0.00000000
U( 2)     =  7.00000000
alpha( 2) =  0.00000000
atom    1   Tr[ns(na)] =  10.00000
    eigenvalues: 
  1.000  1.000  1.000  1.000  1.000
    eigenvectors:
  1.000  0.000  0.000  0.000  0.000
  0.000  1.000  0.000  0.000  0.000
  0.000  0.000  1.000  0.000  0.000
  0.000  0.000  0.000  1.000  0.000
  0.000  0.000  0.000  0.000  1.000
    occupations:
  1.000  0.000  0.000  0.000  0.000
  0.000  1.000  0.000  0.000  0.000
  0.000  0.000  1.000  0.000  0.000
  0.000  0.000  0.000  1.000  0.000
  0.000  0.000  0.000  0.000  1.000
atom    2   Tr[ns(na)] =  10.00000
    eigenvalues: 
  1.000  1.000  1.000  1.000  1.000
    eigenvectors:
  1.000  0.000  0.000  0.000  0.000
  0.000  1.000  0.000  0.000  0.000
  0.000  0.000  1.000  0.000  0.000
  0.000  0.000  0.000  1.000  0.000
  0.000  0.000  0.000  0.000  1.000
    occupations:
  1.000  0.000  0.000  0.000  0.000
  0.000  1.000  0.000  0.000  0.000
  0.000  0.000  1.000  0.000  0.000
  0.000  0.000  0.000  1.000  0.000
  0.000  0.000  0.000  0.000  1.000
atom    3   Tr[ns(na)] =   4.00000
    eigenvalues: 
  0.667  0.667  0.667
    eigenvectors:
  1.000  0.000  0.000
  0.000  1.000  0.000
  0.000  0.000  1.000
    occupations:
  0.667  0.000  0.000
  0.000  0.667  0.000
  0.000  0.000  0.667
atom    4   Tr[ns(na)] =   4.00000
    eigenvalues: 
  0.667  0.667  0.667
    eigenvectors:
  1.000  0.000  0.000
  0.000  1.000  0.000
  0.000  0.000  1.000
    occupations:
  0.667  0.000  0.000
  0.000  0.667  0.000
  0.000  0.000  0.667
atom    5   Tr[ns(na)] =  10.00000
    eigenvalues: 
  1.000  1.000  1.000  1.000  1.000
    eigenvectors:
  1.000  0.000  0.000  0.000  0.000
  0.000  1.000  0.000  0.000  0.000
  0.000  0.000  1.000  0.000  0.000
  0.000  0.000  0.000  1.000  0.000
  0.000  0.000  0.000  0.000  1.000
    occupations:
  1.000  0.000  0.000  0.000  0.000
  0.000  1.000  0.000  0.000  0.000
  0.000  0.000  1.000  0.000  0.000
  0.000  0.000  0.000  1.000  0.000
  0.000  0.000  0.000  0.000  1.000
atom    6   Tr[ns(na)] =  10.00000
    eigenvalues: 
  1.000  1.000  1.000  1.000  1.000
    eigenvectors:
  1.000  0.000  0.000  0.000  0.000
  0.000  1.000  0.000  0.000  0.000
  0.000  0.000  1.000  0.000  0.000
  0.000  0.000  0.000  1.000  0.000
  0.000  0.000  0.000  0.000  1.000
    occupations:
  1.000  0.000  0.000  0.000  0.000
  0.000  1.000  0.000  0.000  0.000
  0.000  0.000  1.000  0.000  0.000
  0.000  0.000  0.000  1.000  0.000
  0.000  0.000  0.000  0.000  1.000
atom    7   Tr[ns(na)] =   4.00000
    eigenvalues: 
  0.667  0.667  0.667
    eigenvectors:
  1.000  0.000  0.000
  0.000  1.000  0.000
  0.000  0.000  1.000
    occupations:
  0.667  0.000  0.000
  0.000  0.667  0.000
  0.000  0.000  0.667
atom    8   Tr[ns(na)] =   4.00000
    eigenvalues: 
  0.667  0.667  0.667
    eigenvectors:
  1.000  0.000  0.000
  0.000  1.000  0.000
  0.000  0.000  1.000
    occupations:
  0.667  0.000  0.000
  0.000  0.667  0.000
  0.000  0.000  0.667
atom    9   Tr[ns(na)] =  10.00000
    eigenvalues: 
  1.000  1.000  1.000  1.000  1.000
    eigenvectors:
  1.000  0.000  0.000  0.000  0.000
  0.000  1.000  0.000  0.000  0.000
  0.000  0.000  1.000  0.000  0.000
  0.000  0.000  0.000  1.000  0.000
  0.000  0.000  0.000  0.000  1.000
    occupations:
  1.000  0.000  0.000  0.000  0.000
  0.000  1.000  0.000  0.000  0.000
  0.000  0.000  1.000  0.000  0.000
  0.000  0.000  0.000  1.000  0.000
  0.000  0.000  0.000  0.000  1.000
atom   10   Tr[ns(na)] =  10.00000
    eigenvalues: 
  1.000  1.000  1.000  1.000  1.000
    eigenvectors:
  1.000  0.000  0.000  0.000  0.000
  0.000  1.000  0.000  0.000  0.000
  0.000  0.000  1.000  0.000  0.000
  0.000  0.000  0.000  1.000  0.000
  0.000  0.000  0.000  0.000  1.000
    occupations:
  1.000  0.000  0.000  0.000  0.000
  0.000  1.000  0.000  0.000  0.000
  0.000  0.000  1.000  0.000  0.000
  0.000  0.000  0.000  1.000  0.000
  0.000  0.000  0.000  0.000  1.000
atom   11   Tr[ns(na)] =   4.00000
    eigenvalues: 
  0.667  0.667  0.667
    eigenvectors:
  1.000  0.000  0.000
  0.000  1.000  0.000
  0.000  0.000  1.000
    occupations:
  0.667  0.000  0.000
  0.000  0.667  0.000
  0.000  0.000  0.667
atom   12   Tr[ns(na)] =   4.00000
    eigenvalues: 
  0.667  0.667  0.667
    eigenvectors:
  1.000  0.000  0.000
  0.000  1.000  0.000
  0.000  0.000  1.000
    occupations:
  0.667  0.000  0.000
  0.000  0.667  0.000
  0.000  0.000  0.667
atom   13   Tr[ns(na)] =  10.00000
    eigenvalues: 
  1.000  1.000  1.000  1.000  1.000
    eigenvectors:
  1.000  0.000  0.000  0.000  0.000
  0.000  1.000  0.000  0.000  0.000
  0.000  0.000  1.000  0.000  0.000
  0.000  0.000  0.000  1.000  0.000
  0.000  0.000  0.000  0.000  1.000
    occupations:
  1.000  0.000  0.000  0.000  0.000
  0.000  1.000  0.000  0.000  0.000
  0.000  0.000  1.000  0.000  0.000
  0.000  0.000  0.000  1.000  0.000
  0.000  0.000  0.000  0.000  1.000
atom   14   Tr[ns(na)] =  10.00000
    eigenvalues: 
  1.000  1.000  1.000  1.000  1.000
    eigenvectors:
  1.000  0.000  0.000  0.000  0.000
  0.000  1.000  0.000  0.000  0.000
  0.000  0.000  1.000  0.000  0.000
  0.000  0.000  0.000  1.000  0.000
  0.000  0.000  0.000  0.000  1.000
    occupations:
  1.000  0.000  0.000  0.000  0.000
  0.000  1.000  0.000  0.000  0.000
  0.000  0.000  1.000  0.000  0.000
  0.000  0.000  0.000  1.000  0.000
  0.000  0.000  0.000  0.000  1.000
atom   15   Tr[ns(na)] =   4.00000
    eigenvalues: 
  0.667  0.667  0.667
    eigenvectors:
  1.000  0.000  0.000
  0.000  1.000  0.000
  0.000  0.000  1.000
    occupations:
  0.667  0.000  0.000
  0.000  0.667  0.000
  0.000  0.000  0.667
atom   16   Tr[ns(na)] =   4.00000
    eigenvalues: 
  0.667  0.667  0.667
    eigenvectors:
  1.000  0.000  0.000
  0.000  1.000  0.000
  0.000  0.000  1.000
    occupations:
  0.667  0.000  0.000
  0.000  0.667  0.000
  0.000  0.000  0.667
atom   17   Tr[ns(na)] =  10.00000
    eigenvalues: 
  1.000  1.000  1.000  1.000  1.000
    eigenvectors:
  1.000  0.000  0.000  0.000  0.000
  0.000  1.000  0.000  0.000  0.000
  0.000  0.000  1.000  0.000  0.000
  0.000  0.000  0.000  1.000  0.000
  0.000  0.000  0.000  0.000  1.000
    occupations:
  1.000  0.000  0.000  0.000  0.000
  0.000  1.000  0.000  0.000  0.000
  0.000  0.000  1.000  0.000  0.000
  0.000  0.000  0.000  1.000  0.000
  0.000  0.000  0.000  0.000  1.000
atom   18   Tr[ns(na)] =  10.00000
    eigenvalues: 
  1.000  1.000  1.000  1.000  1.000
    eigenvectors:
  1.000  0.000  0.000  0.000  0.000
  0.000  1.000  0.000  0.000  0.000
  0.000  0.000  1.000  0.000  0.000
  0.000  0.000  0.000  1.000  0.000
  0.000  0.000  0.000  0.000  1.000
    occupations:
  1.000  0.000  0.000  0.000  0.000
  0.000  1.000  0.000  0.000  0.000
  0.000  0.000  1.000  0.000  0.000
  0.000  0.000  0.000  1.000  0.000
  0.000  0.000  0.000  0.000  1.000
atom   19   Tr[ns(na)] =   4.00000
    eigenvalues: 
  0.667  0.667  0.667
    eigenvectors:
  1.000  0.000  0.000
  0.000  1.000  0.000
  0.000  0.000  1.000
    occupations:
  0.667  0.000  0.000
  0.000  0.667  0.000
  0.000  0.000  0.667
atom   20   Tr[ns(na)] =   4.00000
    eigenvalues: 
  0.667  0.667  0.667
    eigenvectors:
  1.000  0.000  0.000
  0.000  1.000  0.000
  0.000  0.000  1.000
    occupations:
  0.667  0.000  0.000
  0.000  0.667  0.000
  0.000  0.000  0.667
atom   21   Tr[ns(na)] =  10.00000
    eigenvalues: 
  1.000  1.000  1.000  1.000  1.000
    eigenvectors:
  1.000  0.000  0.000  0.000  0.000
  0.000  1.000  0.000  0.000  0.000
  0.000  0.000  1.000  0.000  0.000
  0.000  0.000  0.000  1.000  0.000
  0.000  0.000  0.000  0.000  1.000
    occupations:
  1.000  0.000  0.000  0.000  0.000
  0.000  1.000  0.000  0.000  0.000
  0.000  0.000  1.000  0.000  0.000
  0.000  0.000  0.000  1.000  0.000
  0.000  0.000  0.000  0.000  1.000
atom   22   Tr[ns(na)] =  10.00000
    eigenvalues: 
  1.000  1.000  1.000  1.000  1.000
    eigenvectors:
  1.000  0.000  0.000  0.000  0.000
  0.000  1.000  0.000  0.000  0.000
  0.000  0.000  1.000  0.000  0.000
  0.000  0.000  0.000  1.000  0.000
  0.000  0.000  0.000  0.000  1.000
    occupations:
  1.000  0.000  0.000  0.000  0.000
  0.000  1.000  0.000  0.000  0.000
  0.000  0.000  1.000  0.000  0.000
  0.000  0.000  0.000  1.000  0.000
  0.000  0.000  0.000  0.000  1.000
atom   23   Tr[ns(na)] =   4.00000
    eigenvalues: 
  0.667  0.667  0.667
    eigenvectors:
  1.000  0.000  0.000
  0.000  1.000  0.000
  0.000  0.000  1.000
    occupations:
  0.667  0.000  0.000
  0.000  0.667  0.000
  0.000  0.000  0.667
atom   24   Tr[ns(na)] =   4.00000
    eigenvalues: 
  0.667  0.667  0.667
    eigenvectors:
  1.000  0.000  0.000
  0.000  1.000  0.000
  0.000  0.000  1.000
    occupations:
  0.667  0.000  0.000
  0.000  0.667  0.000
  0.000  0.000  0.667
atom   25   Tr[ns(na)] =  10.00000
    eigenvalues: 
  1.000  1.000  1.000  1.000  1.000
    eigenvectors:
  1.000  0.000  0.000  0.000  0.000
  0.000  1.000  0.000  0.000  0.000
  0.000  0.000  1.000  0.000  0.000
  0.000  0.000  0.000  1.000  0.000
  0.000  0.000  0.000  0.000  1.000
    occupations:
  1.000  0.000  0.000  0.000  0.000
  0.000  1.000  0.000  0.000  0.000
  0.000  0.000  1.000  0.000  0.000
  0.000  0.000  0.000  1.000  0.000
  0.000  0.000  0.000  0.000  1.000
atom   26   Tr[ns(na)] =  10.00000
    eigenvalues: 
  1.000  1.000  1.000  1.000  1.000
    eigenvectors:
  1.000  0.000  0.000  0.000  0.000
  0.000  1.000  0.000  0.000  0.000
  0.000  0.000  1.000  0.000  0.000
  0.000  0.000  0.000  1.000  0.000
  0.000  0.000  0.000  0.000  1.000
    occupations:
  1.000  0.000  0.000  0.000  0.000
  0.000  1.000  0.000  0.000  0.000
  0.000  0.000  1.000  0.000  0.000
  0.000  0.000  0.000  1.000  0.000
  0.000  0.000  0.000  0.000  1.000
atom   27   Tr[ns(na)] =   4.00000
    eigenvalues: 
  0.667  0.667  0.667
    eigenvectors:
  1.000  0.000  0.000
  0.000  1.000  0.000
  0.000  0.000  1.000
    occupations:
  0.667  0.000  0.000
  0.000  0.667  0.000
  0.000  0.000  0.667
atom   28   Tr[ns(na)] =   4.00000
    eigenvalues: 
  0.667  0.667  0.667
    eigenvectors:
  1.000  0.000  0.000
  0.000  1.000  0.000
  0.000  0.000  1.000
    occupations:
  0.667  0.000  0.000
  0.000  0.667  0.000
  0.000  0.000  0.667
atom   29   Tr[ns(na)] =  10.00000
    eigenvalues: 
  1.000  1.000  1.000  1.000  1.000
    eigenvectors:
  1.000  0.000  0.000  0.000  0.000
  0.000  1.000  0.000  0.000  0.000
  0.000  0.000  1.000  0.000  0.000
  0.000  0.000  0.000  1.000  0.000
  0.000  0.000  0.000  0.000  1.000
    occupations:
  1.000  0.000  0.000  0.000  0.000
  0.000  1.000  0.000  0.000  0.000
  0.000  0.000  1.000  0.000  0.000
  0.000  0.000  0.000  1.000  0.000
  0.000  0.000  0.000  0.000  1.000
atom   30   Tr[ns(na)] =  10.00000
    eigenvalues: 
  1.000  1.000  1.000  1.000  1.000
    eigenvectors:
  1.000  0.000  0.000  0.000  0.000
  0.000  1.000  0.000  0.000  0.000
  0.000  0.000  1.000  0.000  0.000
  0.000  0.000  0.000  1.000  0.000
  0.000  0.000  0.000  0.000  1.000
    occupations:
  1.000  0.000  0.000  0.000  0.000
  0.000  1.000  0.000  0.000  0.000
  0.000  0.000  1.000  0.000  0.000
  0.000  0.000  0.000  1.000  0.000
  0.000  0.000  0.000  0.000  1.000
atom   31   Tr[ns(na)] =   4.00000
    eigenvalues: 
  0.667  0.667  0.667
    eigenvectors:
  1.000  0.000  0.000
  0.000  1.000  0.000
  0.000  0.000  1.000
    occupations:
  0.667  0.000  0.000
  0.000  0.667  0.000
  0.000  0.000  0.667
atom   32   Tr[ns(na)] =   4.00000
    eigenvalues: 
  0.667  0.667  0.667
    eigenvectors:
  1.000  0.000  0.000
  0.000  1.000  0.000
  0.000  0.000  1.000
    occupations:
  0.667  0.000  0.000
  0.000  0.667  0.000
  0.000  0.000  0.667
atom   33   Tr[ns(na)] =  10.00000
    eigenvalues: 
  1.000  1.000  1.000  1.000  1.000
    eigenvectors:
  1.000  0.000  0.000  0.000  0.000
  0.000  1.000  0.000  0.000  0.000
  0.000  0.000  1.000  0.000  0.000
  0.000  0.000  0.000  1.000  0.000
  0.000  0.000  0.000  0.000  1.000
    occupations:
  1.000  0.000  0.000  0.000  0.000
  0.000  1.000  0.000  0.000  0.000
  0.000  0.000  1.000  0.000  0.000
  0.000  0.000  0.000  1.000  0.000
  0.000  0.000  0.000  0.000  1.000
atom   34   Tr[ns(na)] =  10.00000
    eigenvalues: 
  1.000  1.000  1.000  1.000  1.000
    eigenvectors:
  1.000  0.000  0.000  0.000  0.000
  0.000  1.000  0.000  0.000  0.000
  0.000  0.000  1.000  0.000  0.000
  0.000  0.000  0.000  1.000  0.000
  0.000  0.000  0.000  0.000  1.000
    occupations:
  1.000  0.000  0.000  0.000  0.000
  0.000  1.000  0.000  0.000  0.000
  0.000  0.000  1.000  0.000  0.000
  0.000  0.000  0.000  1.000  0.000
  0.000  0.000  0.000  0.000  1.000
atom   35   Tr[ns(na)] =   4.00000
    eigenvalues: 
  0.667  0.667  0.667
    eigenvectors:
  1.000  0.000  0.000
  0.000  1.000  0.000
  0.000  0.000  1.000
    occupations:
  0.667  0.000  0.000
  0.000  0.667  0.000
  0.000  0.000  0.667
atom   36   Tr[ns(na)] =   4.00000
    eigenvalues: 
  0.667  0.667  0.667
    eigenvectors:
  1.000  0.000  0.000
  0.000  1.000  0.000
  0.000  0.000  1.000
    occupations:
  0.667  0.000  0.000
  0.000  0.667  0.000
  0.000  0.000  0.667
atom   37   Tr[ns(na)] =  10.00000
    eigenvalues: 
  1.000  1.000  1.000  1.000  1.000
    eigenvectors:
  1.000  0.000  0.000  0.000  0.000
  0.000  1.000  0.000  0.000  0.000
  0.000  0.000  1.000  0.000  0.000
  0.000  0.000  0.000  1.000  0.000
  0.000  0.000  0.000  0.000  1.000
    occupations:
  1.000  0.000  0.000  0.000  0.000
  0.000  1.000  0.000  0.000  0.000
  0.000  0.000  1.000  0.000  0.000
  0.000  0.000  0.000  1.000  0.000
  0.000  0.000  0.000  0.000  1.000
atom   38   Tr[ns(na)] =  10.00000
    eigenvalues: 
  1.000  1.000  1.000  1.000  1.000
    eigenvectors:
  1.000  0.000  0.000  0.000  0.000
  0.000  1.000  0.000  0.000  0.000
  0.000  0.000  1.000  0.000  0.000
  0.000  0.000  0.000  1.000  0.000
  0.000  0.000  0.000  0.000  1.000
    occupations:
  1.000  0.000  0.000  0.000  0.000
  0.000  1.000  0.000  0.000  0.000
  0.000  0.000  1.000  0.000  0.000
  0.000  0.000  0.000  1.000  0.000
  0.000  0.000  0.000  0.000  1.000
atom   39   Tr[ns(na)] =   4.00000
    eigenvalues: 
  0.667  0.667  0.667
    eigenvectors:
  1.000  0.000  0.000
  0.000  1.000  0.000
  0.000  0.000  1.000
    occupations:
  0.667  0.000  0.000
  0.000  0.667  0.000
  0.000  0.000  0.667
atom   40   Tr[ns(na)] =   4.00000
    eigenvalues: 
  0.667  0.667  0.667
    eigenvectors:
  1.000  0.000  0.000
  0.000  1.000  0.000
  0.000  0.000  1.000
    occupations:
  0.667  0.000  0.000
  0.000  0.667  0.000
  0.000  0.000  0.667
atom   41   Tr[ns(na)] =  10.00000
    eigenvalues: 
  1.000  1.000  1.000  1.000  1.000
    eigenvectors:
  1.000  0.000  0.000  0.000  0.000
  0.000  1.000  0.000  0.000  0.000
  0.000  0.000  1.000  0.000  0.000
  0.000  0.000  0.000  1.000  0.000
  0.000  0.000  0.000  0.000  1.000
    occupations:
  1.000  0.000  0.000  0.000  0.000
  0.000  1.000  0.000  0.000  0.000
  0.000  0.000  1.000  0.000  0.000
  0.000  0.000  0.000  1.000  0.000
  0.000  0.000  0.000  0.000  1.000
atom   42   Tr[ns(na)] =  10.00000
    eigenvalues: 
  1.000  1.000  1.000  1.000  1.000
    eigenvectors:
  1.000  0.000  0.000  0.000  0.000
  0.000  1.000  0.000  0.000  0.000
  0.000  0.000  1.000  0.000  0.000
  0.000  0.000  0.000  1.000  0.000
  0.000  0.000  0.000  0.000  1.000
    occupations:
  1.000  0.000  0.000  0.000  0.000
  0.000  1.000  0.000  0.000  0.000
  0.000  0.000  1.000  0.000  0.000
  0.000  0.000  0.000  1.000  0.000
  0.000  0.000  0.000  0.000  1.000
atom   43   Tr[ns(na)] =   4.00000
    eigenvalues: 
  0.667  0.667  0.667
    eigenvectors:
  1.000  0.000  0.000
  0.000  1.000  0.000
  0.000  0.000  1.000
    occupations:
  0.667  0.000  0.000
  0.000  0.667  0.000
  0.000  0.000  0.667
atom   44   Tr[ns(na)] =   4.00000
    eigenvalues: 
  0.667  0.667  0.667
    eigenvectors:
  1.000  0.000  0.000
  0.000  1.000  0.000
  0.000  0.000  1.000
    occupations:
  0.667  0.000  0.000
  0.000  0.667  0.000
  0.000  0.000  0.667
atom   45   Tr[ns(na)] =  10.00000
    eigenvalues: 
  1.000  1.000  1.000  1.000  1.000
    eigenvectors:
  1.000  0.000  0.000  0.000  0.000
  0.000  1.000  0.000  0.000  0.000
  0.000  0.000  1.000  0.000  0.000
  0.000  0.000  0.000  1.000  0.000
  0.000  0.000  0.000  0.000  1.000
    occupations:
  1.000  0.000  0.000  0.000  0.000
  0.000  1.000  0.000  0.000  0.000
  0.000  0.000  1.000  0.000  0.000
  0.000  0.000  0.000  1.000  0.000
  0.000  0.000  0.000  0.000  1.000
atom   46   Tr[ns(na)] =  10.00000
    eigenvalues: 
  1.000  1.000  1.000  1.000  1.000
    eigenvectors:
  1.000  0.000  0.000  0.000  0.000
  0.000  1.000  0.000  0.000  0.000
  0.000  0.000  1.000  0.000  0.000
  0.000  0.000  0.000  1.000  0.000
  0.000  0.000  0.000  0.000  1.000
    occupations:
  1.000  0.000  0.000  0.000  0.000
  0.000  1.000  0.000  0.000  0.000
  0.000  0.000  1.000  0.000  0.000
  0.000  0.000  0.000  1.000  0.000
  0.000  0.000  0.000  0.000  1.000
atom   47   Tr[ns(na)] =   4.00000
    eigenvalues: 
  0.667  0.667  0.667
    eigenvectors:
  1.000  0.000  0.000
  0.000  1.000  0.000
  0.000  0.000  1.000
    occupations:
  0.667  0.000  0.000
  0.000  0.667  0.000
  0.000  0.000  0.667
atom   48   Tr[ns(na)] =   4.00000
    eigenvalues: 
  0.667  0.667  0.667
    eigenvectors:
  1.000  0.000  0.000
  0.000  1.000  0.000
  0.000  0.000  1.000
    occupations:
  0.667  0.000  0.000
  0.000  0.667  0.000
  0.000  0.000  0.667
atom   49   Tr[ns(na)] =  10.00000
    eigenvalues: 
  1.000  1.000  1.000  1.000  1.000
    eigenvectors:
  1.000  0.000  0.000  0.000  0.000
  0.000  1.000  0.000  0.000  0.000
  0.000  0.000  1.000  0.000  0.000
  0.000  0.000  0.000  1.000  0.000
  0.000  0.000  0.000  0.000  1.000
    occupations:
  1.000  0.000  0.000  0.000  0.000
  0.000  1.000  0.000  0.000  0.000
  0.000  0.000  1.000  0.000  0.000
  0.000  0.000  0.000  1.000  0.000
  0.000  0.000  0.000  0.000  1.000
atom   50   Tr[ns(na)] =  10.00000
    eigenvalues: 
  1.000  1.000  1.000  1.000  1.000
    eigenvectors:
  1.000  0.000  0.000  0.000  0.000
  0.000  1.000  0.000  0.000  0.000
  0.000  0.000  1.000  0.000  0.000
  0.000  0.000  0.000  1.000  0.000
  0.000  0.000  0.000  0.000  1.000
    occupations:
  1.000  0.000  0.000  0.000  0.000
  0.000  1.000  0.000  0.000  0.000
  0.000  0.000  1.000  0.000  0.000
  0.000  0.000  0.000  1.000  0.000
  0.000  0.000  0.000  0.000  1.000
atom   51   Tr[ns(na)] =   4.00000
    eigenvalues: 
  0.667  0.667  0.667
    eigenvectors:
  1.000  0.000  0.000
  0.000  1.000  0.000
  0.000  0.000  1.000
    occupations:
  0.667  0.000  0.000
  0.000  0.667  0.000
  0.000  0.000  0.667
atom   52   Tr[ns(na)] =   4.00000
    eigenvalues: 
  0.667  0.667  0.667
    eigenvectors:
  1.000  0.000  0.000
  0.000  1.000  0.000
  0.000  0.000  1.000
    occupations:
  0.667  0.000  0.000
  0.000  0.667  0.000
  0.000  0.000  0.667
atom   54   Tr[ns(na)] =  10.00000
    eigenvalues: 
  1.000  1.000  1.000  1.000  1.000
    eigenvectors:
  1.000  0.000  0.000  0.000  0.000
  0.000  1.000  0.000  0.000  0.000
  0.000  0.000  1.000  0.000  0.000
  0.000  0.000  0.000  1.000  0.000
  0.000  0.000  0.000  0.000  1.000
    occupations:
  1.000  0.000  0.000  0.000  0.000
  0.000  1.000  0.000  0.000  0.000
  0.000  0.000  1.000  0.000  0.000
  0.000  0.000  0.000  1.000  0.000
  0.000  0.000  0.000  0.000  1.000
atom   55   Tr[ns(na)] =   4.00000
    eigenvalues: 
  0.667  0.667  0.667
    eigenvectors:
  1.000  0.000  0.000
  0.000  1.000  0.000
  0.000  0.000  1.000
    occupations:
  0.667  0.000  0.000
  0.000  0.667  0.000
  0.000  0.000  0.667
atom   56   Tr[ns(na)] =   4.00000
    eigenvalues: 
  0.667  0.667  0.667
    eigenvectors:
  1.000  0.000  0.000
  0.000  1.000  0.000
  0.000  0.000  1.000
    occupations:
  0.667  0.000  0.000
  0.000  0.667  0.000
  0.000  0.000  0.667
atom   57   Tr[ns(na)] =  10.00000
    eigenvalues: 
  1.000  1.000  1.000  1.000  1.000
    eigenvectors:
  1.000  0.000  0.000  0.000  0.000
  0.000  1.000  0.000  0.000  0.000
  0.000  0.000  1.000  0.000  0.000
  0.000  0.000  0.000  1.000  0.000
  0.000  0.000  0.000  0.000  1.000
    occupations:
  1.000  0.000  0.000  0.000  0.000
  0.000  1.000  0.000  0.000  0.000
  0.000  0.000  1.000  0.000  0.000
  0.000  0.000  0.000  1.000  0.000
  0.000  0.000  0.000  0.000  1.000
atom   58   Tr[ns(na)] =  10.00000
    eigenvalues: 
  1.000  1.000  1.000  1.000  1.000
    eigenvectors:
  1.000  0.000  0.000  0.000  0.000
  0.000  1.000  0.000  0.000  0.000
  0.000  0.000  1.000  0.000  0.000
  0.000  0.000  0.000  1.000  0.000
  0.000  0.000  0.000  0.000  1.000
    occupations:
  1.000  0.000  0.000  0.000  0.000
  0.000  1.000  0.000  0.000  0.000
  0.000  0.000  1.000  0.000  0.000
  0.000  0.000  0.000  1.000  0.000
  0.000  0.000  0.000  0.000  1.000
atom   59   Tr[ns(na)] =   4.00000
    eigenvalues: 
  0.667  0.667  0.667
    eigenvectors:
  1.000  0.000  0.000
  0.000  1.000  0.000
  0.000  0.000  1.000
    occupations:
  0.667  0.000  0.000
  0.000  0.667  0.000
  0.000  0.000  0.667
atom   60   Tr[ns(na)] =   4.00000
    eigenvalues: 
  0.667  0.667  0.667
    eigenvectors:
  1.000  0.000  0.000
  0.000  1.000  0.000
  0.000  0.000  1.000
    occupations:
  0.667  0.000  0.000
  0.000  0.667  0.000
  0.000  0.000  0.667
atom   61   Tr[ns(na)] =  10.00000
    eigenvalues: 
  1.000  1.000  1.000  1.000  1.000
    eigenvectors:
  1.000  0.000  0.000  0.000  0.000
  0.000  1.000  0.000  0.000  0.000
  0.000  0.000  1.000  0.000  0.000
  0.000  0.000  0.000  1.000  0.000
  0.000  0.000  0.000  0.000  1.000
    occupations:
  1.000  0.000  0.000  0.000  0.000
  0.000  1.000  0.000  0.000  0.000
  0.000  0.000  1.000  0.000  0.000
  0.000  0.000  0.000  1.000  0.000
  0.000  0.000  0.000  0.000  1.000
atom   62   Tr[ns(na)] =  10.00000
    eigenvalues: 
  1.000  1.000  1.000  1.000  1.000
    eigenvectors:
  1.000  0.000  0.000  0.000  0.000
  0.000  1.000  0.000  0.000  0.000
  0.000  0.000  1.000  0.000  0.000
  0.000  0.000  0.000  1.000  0.000
  0.000  0.000  0.000  0.000  1.000
    occupations:
  1.000  0.000  0.000  0.000  0.000
  0.000  1.000  0.000  0.000  0.000
  0.000  0.000  1.000  0.000  0.000
  0.000  0.000  0.000  1.000  0.000
  0.000  0.000  0.000  0.000  1.000
atom   63   Tr[ns(na)] =   4.00000
    eigenvalues: 
  0.667  0.667  0.667
    eigenvectors:
  1.000  0.000  0.000
  0.000  1.000  0.000
  0.000  0.000  1.000
    occupations:
  0.667  0.000  0.000
  0.000  0.667  0.000
  0.000  0.000  0.667
atom   64   Tr[ns(na)] =   4.00000
    eigenvalues: 
  0.667  0.667  0.667
    eigenvectors:
  1.000  0.000  0.000
  0.000  1.000  0.000
  0.000  0.000  1.000
    occupations:
  0.667  0.000  0.000
  0.000  0.667  0.000
  0.000  0.000  0.667
atom   66   Tr[ns(na)] =  10.00000
    eigenvalues: 
  1.000  1.000  1.000  1.000  1.000
    eigenvectors:
  1.000  0.000  0.000  0.000  0.000
  0.000  1.000  0.000  0.000  0.000
  0.000  0.000  1.000  0.000  0.000
  0.000  0.000  0.000  1.000  0.000
  0.000  0.000  0.000  0.000  1.000
    occupations:
  1.000  0.000  0.000  0.000  0.000
  0.000  1.000  0.000  0.000  0.000
  0.000  0.000  1.000  0.000  0.000
  0.000  0.000  0.000  1.000  0.000
  0.000  0.000  0.000  0.000  1.000
atom   67   Tr[ns(na)] =   4.00000
    eigenvalues: 
  0.667  0.667  0.667
    eigenvectors:
  1.000  0.000  0.000
  0.000  1.000  0.000
  0.000  0.000  1.000
    occupations:
  0.667  0.000  0.000
  0.000  0.667  0.000
  0.000  0.000  0.667
atom   68   Tr[ns(na)] =   4.00000
    eigenvalues: 
  0.667  0.667  0.667
    eigenvectors:
  1.000  0.000  0.000
  0.000  1.000  0.000
  0.000  0.000  1.000
    occupations:
  0.667  0.000  0.000
  0.000  0.667  0.000
  0.000  0.000  0.667
atom   69   Tr[ns(na)] =  10.00000
    eigenvalues: 
  1.000  1.000  1.000  1.000  1.000
    eigenvectors:
  1.000  0.000  0.000  0.000  0.000
  0.000  1.000  0.000  0.000  0.000
  0.000  0.000  1.000  0.000  0.000
  0.000  0.000  0.000  1.000  0.000
  0.000  0.000  0.000  0.000  1.000
    occupations:
  1.000  0.000  0.000  0.000  0.000
  0.000  1.000  0.000  0.000  0.000
  0.000  0.000  1.000  0.000  0.000
  0.000  0.000  0.000  1.000  0.000
  0.000  0.000  0.000  0.000  1.000
atom   70   Tr[ns(na)] =  10.00000
    eigenvalues: 
  1.000  1.000  1.000  1.000  1.000
    eigenvectors:
  1.000  0.000  0.000  0.000  0.000
  0.000  1.000  0.000  0.000  0.000
  0.000  0.000  1.000  0.000  0.000
  0.000  0.000  0.000  1.000  0.000
  0.000  0.000  0.000  0.000  1.000
    occupations:
  1.000  0.000  0.000  0.000  0.000
  0.000  1.000  0.000  0.000  0.000
  0.000  0.000  1.000  0.000  0.000
  0.000  0.000  0.000  1.000  0.000
  0.000  0.000  0.000  0.000  1.000
atom   71   Tr[ns(na)] =   4.00000
    eigenvalues: 
  0.667  0.667  0.667
    eigenvectors:
  1.000  0.000  0.000
  0.000  1.000  0.000
  0.000  0.000  1.000
    occupations:
  0.667  0.000  0.000
  0.000  0.667  0.000
  0.000  0.000  0.667
atom   72   Tr[ns(na)] =   4.00000
    eigenvalues: 
  0.667  0.667  0.667
    eigenvectors:
  1.000  0.000  0.000
  0.000  1.000  0.000
  0.000  0.000  1.000
    occupations:
  0.667  0.000  0.000
  0.000  0.667  0.000
  0.000  0.000  0.667
atom   73   Tr[ns(na)] =  10.00000
    eigenvalues: 
  1.000  1.000  1.000  1.000  1.000
    eigenvectors:
  1.000  0.000  0.000  0.000  0.000
  0.000  1.000  0.000  0.000  0.000
  0.000  0.000  1.000  0.000  0.000
  0.000  0.000  0.000  1.000  0.000
  0.000  0.000  0.000  0.000  1.000
    occupations:
  1.000  0.000  0.000  0.000  0.000
  0.000  1.000  0.000  0.000  0.000
  0.000  0.000  1.000  0.000  0.000
  0.000  0.000  0.000  1.000  0.000
  0.000  0.000  0.000  0.000  1.000
atom   74   Tr[ns(na)] =  10.00000
    eigenvalues: 
  1.000  1.000  1.000  1.000  1.000
    eigenvectors:
  1.000  0.000  0.000  0.000  0.000
  0.000  1.000  0.000  0.000  0.000
  0.000  0.000  1.000  0.000  0.000
  0.000  0.000  0.000  1.000  0.000
  0.000  0.000  0.000  0.000  1.000
    occupations:
  1.000  0.000  0.000  0.000  0.000
  0.000  1.000  0.000  0.000  0.000
  0.000  0.000  1.000  0.000  0.000
  0.000  0.000  0.000  1.000  0.000
  0.000  0.000  0.000  0.000  1.000
atom   75   Tr[ns(na)] =   4.00000
    eigenvalues: 
  0.667  0.667  0.667
    eigenvectors:
  1.000  0.000  0.000
  0.000  1.000  0.000
  0.000  0.000  1.000
    occupations:
  0.667  0.000  0.000
  0.000  0.667  0.000
  0.000  0.000  0.667
atom   76   Tr[ns(na)] =   4.00000
    eigenvalues: 
  0.667  0.667  0.667
    eigenvectors:
  1.000  0.000  0.000
  0.000  1.000  0.000
  0.000  0.000  1.000
    occupations:
  0.667  0.000  0.000
  0.000  0.667  0.000
  0.000  0.000  0.667
atom   77   Tr[ns(na)] =  10.00000
    eigenvalues: 
  1.000  1.000  1.000  1.000  1.000
    eigenvectors:
  1.000  0.000  0.000  0.000  0.000
  0.000  1.000  0.000  0.000  0.000
  0.000  0.000  1.000  0.000  0.000
  0.000  0.000  0.000  1.000  0.000
  0.000  0.000  0.000  0.000  1.000
    occupations:
  1.000  0.000  0.000  0.000  0.000
  0.000  1.000  0.000  0.000  0.000
  0.000  0.000  1.000  0.000  0.000
  0.000  0.000  0.000  1.000  0.000
  0.000  0.000  0.000  0.000  1.000
atom   78   Tr[ns(na)] =  10.00000
    eigenvalues: 
  1.000  1.000  1.000  1.000  1.000
    eigenvectors:
  1.000  0.000  0.000  0.000  0.000
  0.000  1.000  0.000  0.000  0.000
  0.000  0.000  1.000  0.000  0.000
  0.000  0.000  0.000  1.000  0.000
  0.000  0.000  0.000  0.000  1.000
    occupations:
  1.000  0.000  0.000  0.000  0.000
  0.000  1.000  0.000  0.000  0.000
  0.000  0.000  1.000  0.000  0.000
  0.000  0.000  0.000  1.000  0.000
  0.000  0.000  0.000  0.000  1.000
atom   79   Tr[ns(na)] =   4.00000
    eigenvalues: 
  0.667  0.667  0.667
    eigenvectors:
  1.000  0.000  0.000
  0.000  1.000  0.000
  0.000  0.000  1.000
    occupations:
  0.667  0.000  0.000
  0.000  0.667  0.000
  0.000  0.000  0.667
atom   80   Tr[ns(na)] =   4.00000
    eigenvalues: 
  0.667  0.667  0.667
    eigenvectors:
  1.000  0.000  0.000
  0.000  1.000  0.000
  0.000  0.000  1.000
    occupations:
  0.667  0.000  0.000
  0.000  0.667  0.000
  0.000  0.000  0.667
atom   81   Tr[ns(na)] =  10.00000
    eigenvalues: 
  1.000  1.000  1.000  1.000  1.000
    eigenvectors:
  1.000  0.000  0.000  0.000  0.000
  0.000  1.000  0.000  0.000  0.000
  0.000  0.000  1.000  0.000  0.000
  0.000  0.000  0.000  1.000  0.000
  0.000  0.000  0.000  0.000  1.000
    occupations:
  1.000  0.000  0.000  0.000  0.000
  0.000  1.000  0.000  0.000  0.000
  0.000  0.000  1.000  0.000  0.000
  0.000  0.000  0.000  1.000  0.000
  0.000  0.000  0.000  0.000  1.000
atom   82   Tr[ns(na)] =  10.00000
    eigenvalues: 
  1.000  1.000  1.000  1.000  1.000
    eigenvectors:
  1.000  0.000  0.000  0.000  0.000
  0.000  1.000  0.000  0.000  0.000
  0.000  0.000  1.000  0.000  0.000
  0.000  0.000  0.000  1.000  0.000
  0.000  0.000  0.000  0.000  1.000
    occupations:
  1.000  0.000  0.000  0.000  0.000
  0.000  1.000  0.000  0.000  0.000
  0.000  0.000  1.000  0.000  0.000
  0.000  0.000  0.000  1.000  0.000
  0.000  0.000  0.000  0.000  1.000
atom   83   Tr[ns(na)] =   4.00000
    eigenvalues: 
  0.667  0.667  0.667
    eigenvectors:
  1.000  0.000  0.000
  0.000  1.000  0.000
  0.000  0.000  1.000
    occupations:
  0.667  0.000  0.000
  0.000  0.667  0.000
  0.000  0.000  0.667
atom   84   Tr[ns(na)] =   4.00000
    eigenvalues: 
  0.667  0.667  0.667
    eigenvectors:
  1.000  0.000  0.000
  0.000  1.000  0.000
  0.000  0.000  1.000
    occupations:
  0.667  0.000  0.000
  0.000  0.667  0.000
  0.000  0.000  0.667
atom   85   Tr[ns(na)] =  10.00000
    eigenvalues: 
  1.000  1.000  1.000  1.000  1.000
    eigenvectors:
  1.000  0.000  0.000  0.000  0.000
  0.000  1.000  0.000  0.000  0.000
  0.000  0.000  1.000  0.000  0.000
  0.000  0.000  0.000  1.000  0.000
  0.000  0.000  0.000  0.000  1.000
    occupations:
  1.000  0.000  0.000  0.000  0.000
  0.000  1.000  0.000  0.000  0.000
  0.000  0.000  1.000  0.000  0.000
  0.000  0.000  0.000  1.000  0.000
  0.000  0.000  0.000  0.000  1.000
atom   86   Tr[ns(na)] =  10.00000
    eigenvalues: 
  1.000  1.000  1.000  1.000  1.000
    eigenvectors:
  1.000  0.000  0.000  0.000  0.000
  0.000  1.000  0.000  0.000  0.000
  0.000  0.000  1.000  0.000  0.000
  0.000  0.000  0.000  1.000  0.000
  0.000  0.000  0.000  0.000  1.000
    occupations:
  1.000  0.000  0.000  0.000  0.000
  0.000  1.000  0.000  0.000  0.000
  0.000  0.000  1.000  0.000  0.000
  0.000  0.000  0.000  1.000  0.000
  0.000  0.000  0.000  0.000  1.000
atom   87   Tr[ns(na)] =   4.00000
    eigenvalues: 
  0.667  0.667  0.667
    eigenvectors:
  1.000  0.000  0.000
  0.000  1.000  0.000
  0.000  0.000  1.000
    occupations:
  0.667  0.000  0.000
  0.000  0.667  0.000
  0.000  0.000  0.667
atom   88   Tr[ns(na)] =   4.00000
    eigenvalues: 
  0.667  0.667  0.667
    eigenvectors:
  1.000  0.000  0.000
  0.000  1.000  0.000
  0.000  0.000  1.000
    occupations:
  0.667  0.000  0.000
  0.000  0.667  0.000
  0.000  0.000  0.667
atom   89   Tr[ns(na)] =  10.00000
    eigenvalues: 
  1.000  1.000  1.000  1.000  1.000
    eigenvectors:
  1.000  0.000  0.000  0.000  0.000
  0.000  1.000  0.000  0.000  0.000
  0.000  0.000  1.000  0.000  0.000
  0.000  0.000  0.000  1.000  0.000
  0.000  0.000  0.000  0.000  1.000
    occupations:
  1.000  0.000  0.000  0.000  0.000
  0.000  1.000  0.000  0.000  0.000
  0.000  0.000  1.000  0.000  0.000
  0.000  0.000  0.000  1.000  0.000
  0.000  0.000  0.000  0.000  1.000
atom   90   Tr[ns(na)] =  10.00000
    eigenvalues: 
  1.000  1.000  1.000  1.000  1.000
    eigenvectors:
  1.000  0.000  0.000  0.000  0.000
  0.000  1.000  0.000  0.000  0.000
  0.000  0.000  1.000  0.000  0.000
  0.000  0.000  0.000  1.000  0.000
  0.000  0.000  0.000  0.000  1.000
    occupations:
  1.000  0.000  0.000  0.000  0.000
  0.000  1.000  0.000  0.000  0.000
  0.000  0.000  1.000  0.000  0.000
  0.000  0.000  0.000  1.000  0.000
  0.000  0.000  0.000  0.000  1.000
atom   91   Tr[ns(na)] =   4.00000
    eigenvalues: 
  0.667  0.667  0.667
    eigenvectors:
  1.000  0.000  0.000
  0.000  1.000  0.000
  0.000  0.000  1.000
    occupations:
  0.667  0.000  0.000
  0.000  0.667  0.000
  0.000  0.000  0.667
atom   92   Tr[ns(na)] =   4.00000
    eigenvalues: 
  0.667  0.667  0.667
    eigenvectors:
  1.000  0.000  0.000
  0.000  1.000  0.000
  0.000  0.000  1.000
    occupations:
  0.667  0.000  0.000
  0.000  0.667  0.000
  0.000  0.000  0.667
atom   93   Tr[ns(na)] =  10.00000
    eigenvalues: 
  1.000  1.000  1.000  1.000  1.000
    eigenvectors:
  1.000  0.000  0.000  0.000  0.000
  0.000  1.000  0.000  0.000  0.000
  0.000  0.000  1.000  0.000  0.000
  0.000  0.000  0.000  1.000  0.000
  0.000  0.000  0.000  0.000  1.000
    occupations:
  1.000  0.000  0.000  0.000  0.000
  0.000  1.000  0.000  0.000  0.000
  0.000  0.000  1.000  0.000  0.000
  0.000  0.000  0.000  1.000  0.000
  0.000  0.000  0.000  0.000  1.000
atom   94   Tr[ns(na)] =  10.00000
    eigenvalues: 
  1.000  1.000  1.000  1.000  1.000
    eigenvectors:
  1.000  0.000  0.000  0.000  0.000
  0.000  1.000  0.000  0.000  0.000
  0.000  0.000  1.000  0.000  0.000
  0.000  0.000  0.000  1.000  0.000
  0.000  0.000  0.000  0.000  1.000
    occupations:
  1.000  0.000  0.000  0.000  0.000
  0.000  1.000  0.000  0.000  0.000
  0.000  0.000  1.000  0.000  0.000
  0.000  0.000  0.000  1.000  0.000
  0.000  0.000  0.000  0.000  1.000
atom   95   Tr[ns(na)] =   4.00000
    eigenvalues: 
  0.667  0.667  0.667
    eigenvectors:
  1.000  0.000  0.000
  0.000  1.000  0.000
  0.000  0.000  1.000
    occupations:
  0.667  0.000  0.000
  0.000  0.667  0.000
  0.000  0.000  0.667
atom   96   Tr[ns(na)] =   4.00000
    eigenvalues: 
  0.667  0.667  0.667
    eigenvectors:
  1.000  0.000  0.000
  0.000  1.000  0.000
  0.000  0.000  1.000
    occupations:
  0.667  0.000  0.000
  0.000  0.667  0.000
  0.000  0.000  0.667
atom   97   Tr[ns(na)] =  10.00000
    eigenvalues: 
  1.000  1.000  1.000  1.000  1.000
    eigenvectors:
  1.000  0.000  0.000  0.000  0.000
  0.000  1.000  0.000  0.000  0.000
  0.000  0.000  1.000  0.000  0.000
  0.000  0.000  0.000  1.000  0.000
  0.000  0.000  0.000  0.000  1.000
    occupations:
  1.000  0.000  0.000  0.000  0.000
  0.000  1.000  0.000  0.000  0.000
  0.000  0.000  1.000  0.000  0.000
  0.000  0.000  0.000  1.000  0.000
  0.000  0.000  0.000  0.000  1.000
atom   98   Tr[ns(na)] =  10.00000
    eigenvalues: 
  1.000  1.000  1.000  1.000  1.000
    eigenvectors:
  1.000  0.000  0.000  0.000  0.000
  0.000  1.000  0.000  0.000  0.000
  0.000  0.000  1.000  0.000  0.000
  0.000  0.000  0.000  1.000  0.000
  0.000  0.000  0.000  0.000  1.000
    occupations:
  1.000  0.000  0.000  0.000  0.000
  0.000  1.000  0.000  0.000  0.000
  0.000  0.000  1.000  0.000  0.000
  0.000  0.000  0.000  1.000  0.000
  0.000  0.000  0.000  0.000  1.000
atom   99   Tr[ns(na)] =   4.00000
    eigenvalues: 
  0.667  0.667  0.667
    eigenvectors:
  1.000  0.000  0.000
  0.000  1.000  0.000
  0.000  0.000  1.000
    occupations:
  0.667  0.000  0.000
  0.000  0.667  0.000
  0.000  0.000  0.667
atom  100   Tr[ns(na)] =   4.00000
    eigenvalues: 
  0.667  0.667  0.667
    eigenvectors:
  1.000  0.000  0.000
  0.000  1.000  0.000
  0.000  0.000  1.000
    occupations:
  0.667  0.000  0.000
  0.000  0.667  0.000
  0.000  0.000  0.667
atom  101   Tr[ns(na)] =  10.00000
    eigenvalues: 
  1.000  1.000  1.000  1.000  1.000
    eigenvectors:
  1.000  0.000  0.000  0.000  0.000
  0.000  1.000  0.000  0.000  0.000
  0.000  0.000  1.000  0.000  0.000
  0.000  0.000  0.000  1.000  0.000
  0.000  0.000  0.000  0.000  1.000
    occupations:
  1.000  0.000  0.000  0.000  0.000
  0.000  1.000  0.000  0.000  0.000
  0.000  0.000  1.000  0.000  0.000
  0.000  0.000  0.000  1.000  0.000
  0.000  0.000  0.000  0.000  1.000
atom  102   Tr[ns(na)] =  10.00000
    eigenvalues: 
  1.000  1.000  1.000  1.000  1.000
    eigenvectors:
  1.000  0.000  0.000  0.000  0.000
  0.000  1.000  0.000  0.000  0.000
  0.000  0.000  1.000  0.000  0.000
  0.000  0.000  0.000  1.000  0.000
  0.000  0.000  0.000  0.000  1.000
    occupations:
  1.000  0.000  0.000  0.000  0.000
  0.000  1.000  0.000  0.000  0.000
  0.000  0.000  1.000  0.000  0.000
  0.000  0.000  0.000  1.000  0.000
  0.000  0.000  0.000  0.000  1.000
atom  103   Tr[ns(na)] =   4.00000
    eigenvalues: 
  0.667  0.667  0.667
    eigenvectors:
  1.000  0.000  0.000
  0.000  1.000  0.000
  0.000  0.000  1.000
    occupations:
  0.667  0.000  0.000
  0.000  0.667  0.000
  0.000  0.000  0.667
atom  104   Tr[ns(na)] =   4.00000
    eigenvalues: 
  0.667  0.667  0.667
    eigenvectors:
  1.000  0.000  0.000
  0.000  1.000  0.000
  0.000  0.000  1.000
    occupations:
  0.667  0.000  0.000
  0.000  0.667  0.000
  0.000  0.000  0.667
atom  105   Tr[ns(na)] =  10.00000
    eigenvalues: 
  1.000  1.000  1.000  1.000  1.000
    eigenvectors:
  1.000  0.000  0.000  0.000  0.000
  0.000  1.000  0.000  0.000  0.000
  0.000  0.000  1.000  0.000  0.000
  0.000  0.000  0.000  1.000  0.000
  0.000  0.000  0.000  0.000  1.000
    occupations:
  1.000  0.000  0.000  0.000  0.000
  0.000  1.000  0.000  0.000  0.000
  0.000  0.000  1.000  0.000  0.000
  0.000  0.000  0.000  1.000  0.000
  0.000  0.000  0.000  0.000  1.000
atom  106   Tr[ns(na)] =  10.00000
    eigenvalues: 
  1.000  1.000  1.000  1.000  1.000
    eigenvectors:
  1.000  0.000  0.000  0.000  0.000
  0.000  1.000  0.000  0.000  0.000
  0.000  0.000  1.000  0.000  0.000
  0.000  0.000  0.000  1.000  0.000
  0.000  0.000  0.000  0.000  1.000
    occupations:
  1.000  0.000  0.000  0.000  0.000
  0.000  1.000  0.000  0.000  0.000
  0.000  0.000  1.000  0.000  0.000
  0.000  0.000  0.000  1.000  0.000
  0.000  0.000  0.000  0.000  1.000
atom  107   Tr[ns(na)] =   4.00000
    eigenvalues: 
  0.667  0.667  0.667
    eigenvectors:
  1.000  0.000  0.000
  0.000  1.000  0.000
  0.000  0.000  1.000
    occupations:
  0.667  0.000  0.000
  0.000  0.667  0.000
  0.000  0.000  0.667
atom  108   Tr[ns(na)] =   4.00000
    eigenvalues: 
  0.667  0.667  0.667
    eigenvectors:
  1.000  0.000  0.000
  0.000  1.000  0.000
  0.000  0.000  1.000
    occupations:
  0.667  0.000  0.000
  0.000  0.667  0.000
  0.000  0.000  0.667
atom  109   Tr[ns(na)] =  10.00000
    eigenvalues: 
  1.000  1.000  1.000  1.000  1.000
    eigenvectors:
  1.000  0.000  0.000  0.000  0.000
  0.000  1.000  0.000  0.000  0.000
  0.000  0.000  1.000  0.000  0.000
  0.000  0.000  0.000  1.000  0.000
  0.000  0.000  0.000  0.000  1.000
    occupations:
  1.000  0.000  0.000  0.000  0.000
  0.000  1.000  0.000  0.000  0.000
  0.000  0.000  1.000  0.000  0.000
  0.000  0.000  0.000  1.000  0.000
  0.000  0.000  0.000  0.000  1.000
atom  110   Tr[ns(na)] =  10.00000
    eigenvalues: 
  1.000  1.000  1.000  1.000  1.000
    eigenvectors:
  1.000  0.000  0.000  0.000  0.000
  0.000  1.000  0.000  0.000  0.000
  0.000  0.000  1.000  0.000  0.000
  0.000  0.000  0.000  1.000  0.000
  0.000  0.000  0.000  0.000  1.000
    occupations:
  1.000  0.000  0.000  0.000  0.000
  0.000  1.000  0.000  0.000  0.000
  0.000  0.000  1.000  0.000  0.000
  0.000  0.000  0.000  1.000  0.000
  0.000  0.000  0.000  0.000  1.000
atom  111   Tr[ns(na)] =   4.00000
    eigenvalues: 
  0.667  0.667  0.667
    eigenvectors:
  1.000  0.000  0.000
  0.000  1.000  0.000
  0.000  0.000  1.000
    occupations:
  0.667  0.000  0.000
  0.000  0.667  0.000
  0.000  0.000  0.667
atom  112   Tr[ns(na)] =   4.00000
    eigenvalues: 
  0.667  0.667  0.667
    eigenvectors:
  1.000  0.000  0.000
  0.000  1.000  0.000
  0.000  0.000  1.000
    occupations:
  0.667  0.000  0.000
  0.000  0.667  0.000
  0.000  0.000  0.667
atom  113   Tr[ns(na)] =  10.00000
    eigenvalues: 
  1.000  1.000  1.000  1.000  1.000
    eigenvectors:
  1.000  0.000  0.000  0.000  0.000
  0.000  1.000  0.000  0.000  0.000
  0.000  0.000  1.000  0.000  0.000
  0.000  0.000  0.000  1.000  0.000
  0.000  0.000  0.000  0.000  1.000
    occupations:
  1.000  0.000  0.000  0.000  0.000
  0.000  1.000  0.000  0.000  0.000
  0.000  0.000  1.000  0.000  0.000
  0.000  0.000  0.000  1.000  0.000
  0.000  0.000  0.000  0.000  1.000
atom  114   Tr[ns(na)] =  10.00000
    eigenvalues: 
  1.000  1.000  1.000  1.000  1.000
    eigenvectors:
  1.000  0.000  0.000  0.000  0.000
  0.000  1.000  0.000  0.000  0.000
  0.000  0.000  1.000  0.000  0.000
  0.000  0.000  0.000  1.000  0.000
  0.000  0.000  0.000  0.000  1.000
    occupations:
  1.000  0.000  0.000  0.000  0.000
  0.000  1.000  0.000  0.000  0.000
  0.000  0.000  1.000  0.000  0.000
  0.000  0.000  0.000  1.000  0.000
  0.000  0.000  0.000  0.000  1.000
atom  115   Tr[ns(na)] =   4.00000
    eigenvalues: 
  0.667  0.667  0.667
    eigenvectors:
  1.000  0.000  0.000
  0.000  1.000  0.000
  0.000  0.000  1.000
    occupations:
  0.667  0.000  0.000
  0.000  0.667  0.000
  0.000  0.000  0.667
atom  116   Tr[ns(na)] =   4.00000
    eigenvalues: 
  0.667  0.667  0.667
    eigenvectors:
  1.000  0.000  0.000
  0.000  1.000  0.000
  0.000  0.000  1.000
    occupations:
  0.667  0.000  0.000
  0.000  0.667  0.000
  0.000  0.000  0.667
atom  117   Tr[ns(na)] =  10.00000
    eigenvalues: 
  1.000  1.000  1.000  1.000  1.000
    eigenvectors:
  1.000  0.000  0.000  0.000  0.000
  0.000  1.000  0.000  0.000  0.000
  0.000  0.000  1.000  0.000  0.000
  0.000  0.000  0.000  1.000  0.000
  0.000  0.000  0.000  0.000  1.000
    occupations:
  1.000  0.000  0.000  0.000  0.000
  0.000  1.000  0.000  0.000  0.000
  0.000  0.000  1.000  0.000  0.000
  0.000  0.000  0.000  1.000  0.000
  0.000  0.000  0.000  0.000  1.000
atom  118   Tr[ns(na)] =  10.00000
    eigenvalues: 
  1.000  1.000  1.000  1.000  1.000
    eigenvectors:
  1.000  0.000  0.000  0.000  0.000
  0.000  1.000  0.000  0.000  0.000
  0.000  0.000  1.000  0.000  0.000
  0.000  0.000  0.000  1.000  0.000
  0.000  0.000  0.000  0.000  1.000
    occupations:
  1.000  0.000  0.000  0.000  0.000
  0.000  1.000  0.000  0.000  0.000
  0.000  0.000  1.000  0.000  0.000
  0.000  0.000  0.000  1.000  0.000
  0.000  0.000  0.000  0.000  1.000
atom  119   Tr[ns(na)] =   4.00000
    eigenvalues: 
  0.667  0.667  0.667
    eigenvectors:
  1.000  0.000  0.000
  0.000  1.000  0.000
  0.000  0.000  1.000
    occupations:
  0.667  0.000  0.000
  0.000  0.667  0.000
  0.000  0.000  0.667
atom  120   Tr[ns(na)] =   4.00000
    eigenvalues: 
  0.667  0.667  0.667
    eigenvectors:
  1.000  0.000  0.000
  0.000  1.000  0.000
  0.000  0.000  1.000
    occupations:
  0.667  0.000  0.000
  0.000  0.667  0.000
  0.000  0.000  0.667
atom  121   Tr[ns(na)] =  10.00000
    eigenvalues: 
  1.000  1.000  1.000  1.000  1.000
    eigenvectors:
  1.000  0.000  0.000  0.000  0.000
  0.000  1.000  0.000  0.000  0.000
  0.000  0.000  1.000  0.000  0.000
  0.000  0.000  0.000  1.000  0.000
  0.000  0.000  0.000  0.000  1.000
    occupations:
  1.000  0.000  0.000  0.000  0.000
  0.000  1.000  0.000  0.000  0.000
  0.000  0.000  1.000  0.000  0.000
  0.000  0.000  0.000  1.000  0.000
  0.000  0.000  0.000  0.000  1.000
atom  122   Tr[ns(na)] =  10.00000
    eigenvalues: 
  1.000  1.000  1.000  1.000  1.000
    eigenvectors:
  1.000  0.000  0.000  0.000  0.000
  0.000  1.000  0.000  0.000  0.000
  0.000  0.000  1.000  0.000  0.000
  0.000  0.000  0.000  1.000  0.000
  0.000  0.000  0.000  0.000  1.000
    occupations:
  1.000  0.000  0.000  0.000  0.000
  0.000  1.000  0.000  0.000  0.000
  0.000  0.000  1.000  0.000  0.000
  0.000  0.000  0.000  1.000  0.000
  0.000  0.000  0.000  0.000  1.000
atom  123   Tr[ns(na)] =   4.00000
    eigenvalues: 
  0.667  0.667  0.667
    eigenvectors:
  1.000  0.000  0.000
  0.000  1.000  0.000
  0.000  0.000  1.000
    occupations:
  0.667  0.000  0.000
  0.000  0.667  0.000
  0.000  0.000  0.667
atom  124   Tr[ns(na)] =   4.00000
    eigenvalues: 
  0.667  0.667  0.667
    eigenvectors:
  1.000  0.000  0.000
  0.000  1.000  0.000
  0.000  0.000  1.000
    occupations:
  0.667  0.000  0.000
  0.000  0.667  0.000
  0.000  0.000  0.667
atom  125   Tr[ns(na)] =  10.00000
    eigenvalues: 
  1.000  1.000  1.000  1.000  1.000
    eigenvectors:
  1.000  0.000  0.000  0.000  0.000
  0.000  1.000  0.000  0.000  0.000
  0.000  0.000  1.000  0.000  0.000
  0.000  0.000  0.000  1.000  0.000
  0.000  0.000  0.000  0.000  1.000
    occupations:
  1.000  0.000  0.000  0.000  0.000
  0.000  1.000  0.000  0.000  0.000
  0.000  0.000  1.000  0.000  0.000
  0.000  0.000  0.000  1.000  0.000
  0.000  0.000  0.000  0.000  1.000
atom  126   Tr[ns(na)] =  10.00000
    eigenvalues: 
  1.000  1.000  1.000  1.000  1.000
    eigenvectors:
  1.000  0.000  0.000  0.000  0.000
  0.000  1.000  0.000  0.000  0.000
  0.000  0.000  1.000  0.000  0.000
  0.000  0.000  0.000  1.000  0.000
  0.000  0.000  0.000  0.000  1.000
    occupations:
  1.000  0.000  0.000  0.000  0.000
  0.000  1.000  0.000  0.000  0.000
  0.000  0.000  1.000  0.000  0.000
  0.000  0.000  0.000  1.000  0.000
  0.000  0.000  0.000  0.000  1.000
atom  127   Tr[ns(na)] =   4.00000
    eigenvalues: 
  0.667  0.667  0.667
    eigenvectors:
  1.000  0.000  0.000
  0.000  1.000  0.000
  0.000  0.000  1.000
    occupations:
  0.667  0.000  0.000
  0.000  0.667  0.000
  0.000  0.000  0.667
atom  128   Tr[ns(na)] =   4.00000
    eigenvalues: 
  0.667  0.667  0.667
    eigenvectors:
  1.000  0.000  0.000
  0.000  1.000  0.000
  0.000  0.000  1.000
    occupations:
  0.667  0.000  0.000
  0.000  0.667  0.000
  0.000  0.000  0.667
atom  130   Tr[ns(na)] =  10.00000
    eigenvalues: 
  1.000  1.000  1.000  1.000  1.000
    eigenvectors:
  1.000  0.000  0.000  0.000  0.000
  0.000  1.000  0.000  0.000  0.000
  0.000  0.000  1.000  0.000  0.000
  0.000  0.000  0.000  1.000  0.000
  0.000  0.000  0.000  0.000  1.000
    occupations:
  1.000  0.000  0.000  0.000  0.000
  0.000  1.000  0.000  0.000  0.000
  0.000  0.000  1.000  0.000  0.000
  0.000  0.000  0.000  1.000  0.000
  0.000  0.000  0.000  0.000  1.000
atom  131   Tr[ns(na)] =   4.00000
    eigenvalues: 
  0.667  0.667  0.667
    eigenvectors:
  1.000  0.000  0.000
  0.000  1.000  0.000
  0.000  0.000  1.000
    occupations:
  0.667  0.000  0.000
  0.000  0.667  0.000
  0.000  0.000  0.667
atom  132   Tr[ns(na)] =   4.00000
    eigenvalues: 
  0.667  0.667  0.667
    eigenvectors:
  1.000  0.000  0.000
  0.000  1.000  0.000
  0.000  0.000  1.000
    occupations:
  0.667  0.000  0.000
  0.000  0.667  0.000
  0.000  0.000  0.667
atom  133   Tr[ns(na)] =  10.00000
    eigenvalues: 
  1.000  1.000  1.000  1.000  1.000
    eigenvectors:
  1.000  0.000  0.000  0.000  0.000
  0.000  1.000  0.000  0.000  0.000
  0.000  0.000  1.000  0.000  0.000
  0.000  0.000  0.000  1.000  0.000
  0.000  0.000  0.000  0.000  1.000
    occupations:
  1.000  0.000  0.000  0.000  0.000
  0.000  1.000  0.000  0.000  0.000
  0.000  0.000  1.000  0.000  0.000
  0.000  0.000  0.000  1.000  0.000
  0.000  0.000  0.000  0.000  1.000
atom  134   Tr[ns(na)] =  10.00000
    eigenvalues: 
  1.000  1.000  1.000  1.000  1.000
    eigenvectors:
  1.000  0.000  0.000  0.000  0.000
  0.000  1.000  0.000  0.000  0.000
  0.000  0.000  1.000  0.000  0.000
  0.000  0.000  0.000  1.000  0.000
  0.000  0.000  0.000  0.000  1.000
    occupations:
  1.000  0.000  0.000  0.000  0.000
  0.000  1.000  0.000  0.000  0.000
  0.000  0.000  1.000  0.000  0.000
  0.000  0.000  0.000  1.000  0.000
  0.000  0.000  0.000  0.000  1.000
atom  135   Tr[ns(na)] =   4.00000
    eigenvalues: 
  0.667  0.667  0.667
    eigenvectors:
  1.000  0.000  0.000
  0.000  1.000  0.000
  0.000  0.000  1.000
    occupations:
  0.667  0.000  0.000
  0.000  0.667  0.000
  0.000  0.000  0.667
atom  136   Tr[ns(na)] =   4.00000
    eigenvalues: 
  0.667  0.667  0.667
    eigenvectors:
  1.000  0.000  0.000
  0.000  1.000  0.000
  0.000  0.000  1.000
    occupations:
  0.667  0.000  0.000
  0.000  0.667  0.000
  0.000  0.000  0.667
atom  137   Tr[ns(na)] =  10.00000
    eigenvalues: 
  1.000  1.000  1.000  1.000  1.000
    eigenvectors:
  1.000  0.000  0.000  0.000  0.000
  0.000  1.000  0.000  0.000  0.000
  0.000  0.000  1.000  0.000  0.000
  0.000  0.000  0.000  1.000  0.000
  0.000  0.000  0.000  0.000  1.000
    occupations:
  1.000  0.000  0.000  0.000  0.000
  0.000  1.000  0.000  0.000  0.000
  0.000  0.000  1.000  0.000  0.000
  0.000  0.000  0.000  1.000  0.000
  0.000  0.000  0.000  0.000  1.000
atom  138   Tr[ns(na)] =  10.00000
    eigenvalues: 
  1.000  1.000  1.000  1.000  1.000
    eigenvectors:
  1.000  0.000  0.000  0.000  0.000
  0.000  1.000  0.000  0.000  0.000
  0.000  0.000  1.000  0.000  0.000
  0.000  0.000  0.000  1.000  0.000
  0.000  0.000  0.000  0.000  1.000
    occupations:
  1.000  0.000  0.000  0.000  0.000
  0.000  1.000  0.000  0.000  0.000
  0.000  0.000  1.000  0.000  0.000
  0.000  0.000  0.000  1.000  0.000
  0.000  0.000  0.000  0.000  1.000
atom  139   Tr[ns(na)] =   4.00000
    eigenvalues: 
  0.667  0.667  0.667
    eigenvectors:
  1.000  0.000  0.000
  0.000  1.000  0.000
  0.000  0.000  1.000
    occupations:
  0.667  0.000  0.000
  0.000  0.667  0.000
  0.000  0.000  0.667
atom  140   Tr[ns(na)] =   4.00000
    eigenvalues: 
  0.667  0.667  0.667
    eigenvectors:
  1.000  0.000  0.000
  0.000  1.000  0.000
  0.000  0.000  1.000
    occupations:
  0.667  0.000  0.000
  0.000  0.667  0.000
  0.000  0.000  0.667
atom  141   Tr[ns(na)] =  10.00000
    eigenvalues: 
  1.000  1.000  1.000  1.000  1.000
    eigenvectors:
  1.000  0.000  0.000  0.000  0.000
  0.000  1.000  0.000  0.000  0.000
  0.000  0.000  1.000  0.000  0.000
  0.000  0.000  0.000  1.000  0.000
  0.000  0.000  0.000  0.000  1.000
    occupations:
  1.000  0.000  0.000  0.000  0.000
  0.000  1.000  0.000  0.000  0.000
  0.000  0.000  1.000  0.000  0.000
  0.000  0.000  0.000  1.000  0.000
  0.000  0.000  0.000  0.000  1.000
atom  142   Tr[ns(na)] =  10.00000
    eigenvalues: 
  1.000  1.000  1.000  1.000  1.000
    eigenvectors:
  1.000  0.000  0.000  0.000  0.000
  0.000  1.000  0.000  0.000  0.000
  0.000  0.000  1.000  0.000  0.000
  0.000  0.000  0.000  1.000  0.000
  0.000  0.000  0.000  0.000  1.000
    occupations:
  1.000  0.000  0.000  0.000  0.000
  0.000  1.000  0.000  0.000  0.000
  0.000  0.000  1.000  0.000  0.000
  0.000  0.000  0.000  1.000  0.000
  0.000  0.000  0.000  0.000  1.000
atom  143   Tr[ns(na)] =   4.00000
    eigenvalues: 
  0.667  0.667  0.667
    eigenvectors:
  1.000  0.000  0.000
  0.000  1.000  0.000
  0.000  0.000  1.000
    occupations:
  0.667  0.000  0.000
  0.000  0.667  0.000
  0.000  0.000  0.667
atom  144   Tr[ns(na)] =   4.00000
    eigenvalues: 
  0.667  0.667  0.667
    eigenvectors:
  1.000  0.000  0.000
  0.000  1.000  0.000
  0.000  0.000  1.000
    occupations:
  0.667  0.000  0.000
  0.000  0.667  0.000
  0.000  0.000  0.667
atom  145   Tr[ns(na)] =  10.00000
    eigenvalues: 
  1.000  1.000  1.000  1.000  1.000
    eigenvectors:
  1.000  0.000  0.000  0.000  0.000
  0.000  1.000  0.000  0.000  0.000
  0.000  0.000  1.000  0.000  0.000
  0.000  0.000  0.000  1.000  0.000
  0.000  0.000  0.000  0.000  1.000
    occupations:
  1.000  0.000  0.000  0.000  0.000
  0.000  1.000  0.000  0.000  0.000
  0.000  0.000  1.000  0.000  0.000
  0.000  0.000  0.000  1.000  0.000
  0.000  0.000  0.000  0.000  1.000
atom  146   Tr[ns(na)] =  10.00000
    eigenvalues: 
  1.000  1.000  1.000  1.000  1.000
    eigenvectors:
  1.000  0.000  0.000  0.000  0.000
  0.000  1.000  0.000  0.000  0.000
  0.000  0.000  1.000  0.000  0.000
  0.000  0.000  0.000  1.000  0.000
  0.000  0.000  0.000  0.000  1.000
    occupations:
  1.000  0.000  0.000  0.000  0.000
  0.000  1.000  0.000  0.000  0.000
  0.000  0.000  1.000  0.000  0.000
  0.000  0.000  0.000  1.000  0.000
  0.000  0.000  0.000  0.000  1.000
atom  147   Tr[ns(na)] =   4.00000
    eigenvalues: 
  0.667  0.667  0.667
    eigenvectors:
  1.000  0.000  0.000
  0.000  1.000  0.000
  0.000  0.000  1.000
    occupations:
  0.667  0.000  0.000
  0.000  0.667  0.000
  0.000  0.000  0.667
atom  148   Tr[ns(na)] =   4.00000
    eigenvalues: 
  0.667  0.667  0.667
    eigenvectors:
  1.000  0.000  0.000
  0.000  1.000  0.000
  0.000  0.000  1.000
    occupations:
  0.667  0.000  0.000
  0.000  0.667  0.000
  0.000  0.000  0.667
atom  150   Tr[ns(na)] =  10.00000
    eigenvalues: 
  1.000  1.000  1.000  1.000  1.000
    eigenvectors:
  1.000  0.000  0.000  0.000  0.000
  0.000  1.000  0.000  0.000  0.000
  0.000  0.000  1.000  0.000  0.000
  0.000  0.000  0.000  1.000  0.000
  0.000  0.000  0.000  0.000  1.000
    occupations:
  1.000  0.000  0.000  0.000  0.000
  0.000  1.000  0.000  0.000  0.000
  0.000  0.000  1.000  0.000  0.000
  0.000  0.000  0.000  1.000  0.000
  0.000  0.000  0.000  0.000  1.000
atom  151   Tr[ns(na)] =   4.00000
    eigenvalues: 
  0.667  0.667  0.667
    eigenvectors:
  1.000  0.000  0.000
  0.000  1.000  0.000
  0.000  0.000  1.000
    occupations:
  0.667  0.000  0.000
  0.000  0.667  0.000
  0.000  0.000  0.667
atom  152   Tr[ns(na)] =   4.00000
    eigenvalues: 
  0.667  0.667  0.667
    eigenvectors:
  1.000  0.000  0.000
  0.000  1.000  0.000
  0.000  0.000  1.000
    occupations:
  0.667  0.000  0.000
  0.000  0.667  0.000
  0.000  0.000  0.667
atom  153   Tr[ns(na)] =  10.00000
    eigenvalues: 
  1.000  1.000  1.000  1.000  1.000
    eigenvectors:
  1.000  0.000  0.000  0.000  0.000
  0.000  1.000  0.000  0.000  0.000
  0.000  0.000  1.000  0.000  0.000
  0.000  0.000  0.000  1.000  0.000
  0.000  0.000  0.000  0.000  1.000
    occupations:
  1.000  0.000  0.000  0.000  0.000
  0.000  1.000  0.000  0.000  0.000
  0.000  0.000  1.000  0.000  0.000
  0.000  0.000  0.000  1.000  0.000
  0.000  0.000  0.000  0.000  1.000
atom  154   Tr[ns(na)] =  10.00000
    eigenvalues: 
  1.000  1.000  1.000  1.000  1.000
    eigenvectors:
  1.000  0.000  0.000  0.000  0.000
  0.000  1.000  0.000  0.000  0.000
  0.000  0.000  1.000  0.000  0.000
  0.000  0.000  0.000  1.000  0.000
  0.000  0.000  0.000  0.000  1.000
    occupations:
  1.000  0.000  0.000  0.000  0.000
  0.000  1.000  0.000  0.000  0.000
  0.000  0.000  1.000  0.000  0.000
  0.000  0.000  0.000  1.000  0.000
  0.000  0.000  0.000  0.000  1.000
atom  155   Tr[ns(na)] =   4.00000
    eigenvalues: 
  0.667  0.667  0.667
    eigenvectors:
  1.000  0.000  0.000
  0.000  1.000  0.000
  0.000  0.000  1.000
    occupations:
  0.667  0.000  0.000
  0.000  0.667  0.000
  0.000  0.000  0.667
atom  156   Tr[ns(na)] =   4.00000
    eigenvalues: 
  0.667  0.667  0.667
    eigenvectors:
  1.000  0.000  0.000
  0.000  1.000  0.000
  0.000  0.000  1.000
    occupations:
  0.667  0.000  0.000
  0.000  0.667  0.000
  0.000  0.000  0.667
atom  157   Tr[ns(na)] =  10.00000
    eigenvalues: 
  1.000  1.000  1.000  1.000  1.000
    eigenvectors:
  1.000  0.000  0.000  0.000  0.000
  0.000  1.000  0.000  0.000  0.000
  0.000  0.000  1.000  0.000  0.000
  0.000  0.000  0.000  1.000  0.000
  0.000  0.000  0.000  0.000  1.000
    occupations:
  1.000  0.000  0.000  0.000  0.000
  0.000  1.000  0.000  0.000  0.000
  0.000  0.000  1.000  0.000  0.000
  0.000  0.000  0.000  1.000  0.000
  0.000  0.000  0.000  0.000  1.000
atom  158   Tr[ns(na)] =  10.00000
    eigenvalues: 
  1.000  1.000  1.000  1.000  1.000
    eigenvectors:
  1.000  0.000  0.000  0.000  0.000
  0.000  1.000  0.000  0.000  0.000
  0.000  0.000  1.000  0.000  0.000
  0.000  0.000  0.000  1.000  0.000
  0.000  0.000  0.000  0.000  1.000
    occupations:
  1.000  0.000  0.000  0.000  0.000
  0.000  1.000  0.000  0.000  0.000
  0.000  0.000  1.000  0.000  0.000
  0.000  0.000  0.000  1.000  0.000
  0.000  0.000  0.000  0.000  1.000
atom  159   Tr[ns(na)] =   4.00000
    eigenvalues: 
  0.667  0.667  0.667
    eigenvectors:
  1.000  0.000  0.000
  0.000  1.000  0.000
  0.000  0.000  1.000
    occupations:
  0.667  0.000  0.000
  0.000  0.667  0.000
  0.000  0.000  0.667
atom  160   Tr[ns(na)] =   4.00000
    eigenvalues: 
  0.667  0.667  0.667
    eigenvectors:
  1.000  0.000  0.000
  0.000  1.000  0.000
  0.000  0.000  1.000
    occupations:
  0.667  0.000  0.000
  0.000  0.667  0.000
  0.000  0.000  0.667
atom  161   Tr[ns(na)] =  10.00000
    eigenvalues: 
  1.000  1.000  1.000  1.000  1.000
    eigenvectors:
  1.000  0.000  0.000  0.000  0.000
  0.000  1.000  0.000  0.000  0.000
  0.000  0.000  1.000  0.000  0.000
  0.000  0.000  0.000  1.000  0.000
  0.000  0.000  0.000  0.000  1.000
    occupations:
  1.000  0.000  0.000  0.000  0.000
  0.000  1.000  0.000  0.000  0.000
  0.000  0.000  1.000  0.000  0.000
  0.000  0.000  0.000  1.000  0.000
  0.000  0.000  0.000  0.000  1.000
atom  162   Tr[ns(na)] =  10.00000
    eigenvalues: 
  1.000  1.000  1.000  1.000  1.000
    eigenvectors:
  1.000  0.000  0.000  0.000  0.000
  0.000  1.000  0.000  0.000  0.000
  0.000  0.000  1.000  0.000  0.000
  0.000  0.000  0.000  1.000  0.000
  0.000  0.000  0.000  0.000  1.000
    occupations:
  1.000  0.000  0.000  0.000  0.000
  0.000  1.000  0.000  0.000  0.000
  0.000  0.000  1.000  0.000  0.000
  0.000  0.000  0.000  1.000  0.000
  0.000  0.000  0.000  0.000  1.000
atom  163   Tr[ns(na)] =   4.00000
    eigenvalues: 
  0.667  0.667  0.667
    eigenvectors:
  1.000  0.000  0.000
  0.000  1.000  0.000
  0.000  0.000  1.000
    occupations:
  0.667  0.000  0.000
  0.000  0.667  0.000
  0.000  0.000  0.667
atom  164   Tr[ns(na)] =   4.00000
    eigenvalues: 
  0.667  0.667  0.667
    eigenvectors:
  1.000  0.000  0.000
  0.000  1.000  0.000
  0.000  0.000  1.000
    occupations:
  0.667  0.000  0.000
  0.000  0.667  0.000
  0.000  0.000  0.667
atom  165   Tr[ns(na)] =  10.00000
    eigenvalues: 
  1.000  1.000  1.000  1.000  1.000
    eigenvectors:
  1.000  0.000  0.000  0.000  0.000
  0.000  1.000  0.000  0.000  0.000
  0.000  0.000  1.000  0.000  0.000
  0.000  0.000  0.000  1.000  0.000
  0.000  0.000  0.000  0.000  1.000
    occupations:
  1.000  0.000  0.000  0.000  0.000
  0.000  1.000  0.000  0.000  0.000
  0.000  0.000  1.000  0.000  0.000
  0.000  0.000  0.000  1.000  0.000
  0.000  0.000  0.000  0.000  1.000
atom  166   Tr[ns(na)] =  10.00000
    eigenvalues: 
  1.000  1.000  1.000  1.000  1.000
    eigenvectors:
  1.000  0.000  0.000  0.000  0.000
  0.000  1.000  0.000  0.000  0.000
  0.000  0.000  1.000  0.000  0.000
  0.000  0.000  0.000  1.000  0.000
  0.000  0.000  0.000  0.000  1.000
    occupations:
  1.000  0.000  0.000  0.000  0.000
  0.000  1.000  0.000  0.000  0.000
  0.000  0.000  1.000  0.000  0.000
  0.000  0.000  0.000  1.000  0.000
  0.000  0.000  0.000  0.000  1.000
atom  167   Tr[ns(na)] =   4.00000
    eigenvalues: 
  0.667  0.667  0.667
[...]
    eigenvectors:
  0.106  0.670  0.221  0.000  0.003
  0.152  0.009  0.160  0.654  0.026
  0.102  0.100  0.055  0.028  0.715
  0.308  0.212  0.226  0.006  0.248
  0.332  0.009  0.339  0.312  0.008
    occupations:
  0.999  0.000 -0.000 -0.000  0.000
  0.000  0.999 -0.000 -0.000 -0.000
 -0.000 -0.000  1.000 -0.000 -0.000
 -0.000 -0.000 -0.000  0.999 -0.000
  0.000 -0.000 -0.000 -0.000  0.999
atom  190   Tr[ns(na)] =   9.99161
    eigenvalues: 
  0.999  0.999  0.999  1.000  1.000
    eigenvectors:
  0.012  0.040  0.948  0.000  0.000
  0.009  0.337  0.014  0.476  0.163
  0.328  0.008  0.007  0.161  0.496
  0.632  0.012  0.012  0.088  0.255
  0.019  0.603  0.018  0.274  0.086
    occupations:
  0.999  0.000  0.000 -0.000 -0.000
  0.000  0.999 -0.000 -0.000  0.001
  0.000 -0.000  0.999  0.001 -0.000
 -0.000 -0.000  0.001  0.999  0.000
 -0.000  0.001 -0.000  0.000  0.999
atom  191   Tr[ns(na)] =   5.75542
    eigenvalues: 
  0.959  0.959  0.960
    eigenvectors:
  0.001  0.642  0.357
  0.957  0.021  0.021
  0.042  0.336  0.622
    occupations:
  0.959 -0.000 -0.000
 -0.000  0.959  0.000
 -0.000  0.000  0.959
atom  192   Tr[ns(na)] =   5.77404
    eigenvalues: 
  0.961  0.962  0.964
    eigenvectors:
  0.001  0.830  0.169
  0.228  0.123  0.650
  0.772  0.047  0.181
    occupations:
  0.962  0.001  0.000
  0.001  0.963  0.001
  0.000  0.001  0.962
atom  193   Tr[ns(na)] =   9.99176
    eigenvalues: 
  0.999  0.999  0.999  1.000  1.000
    eigenvectors:
  0.002  0.529  0.469  0.000  0.000
  0.310  0.001  0.000  0.059  0.631
  0.001  0.164  0.167  0.609  0.059
  0.001  0.304  0.364  0.305  0.027
  0.687  0.002  0.000  0.028  0.283
    occupations:
  0.999 -0.000  0.000  0.000  0.000
 -0.000  0.999 -0.000 -0.000 -0.001
  0.000 -0.000  0.999 -0.000 -0.000
  0.000 -0.000 -0.000  0.999  0.000
  0.000 -0.001 -0.000  0.000  0.999
atom  194   Tr[ns(na)] =   9.99151
    eigenvalues: 
  0.999  0.999  0.999  1.000  1.000
    eigenvectors:
  0.040  0.006  0.954  0.000  0.000
  0.001  0.317  0.002  0.018  0.662
  0.319  0.001  0.015  0.648  0.017
  0.637  0.002  0.027  0.326  0.009
  0.003  0.675  0.002  0.008  0.312
    occupations:
  0.999 -0.000  0.000 -0.000 -0.000
 -0.000  0.999  0.000 -0.000  0.001
  0.000  0.000  0.999  0.001 -0.000
 -0.000 -0.000  0.001  0.999  0.000
 -0.000  0.001 -0.000  0.000  0.999
atom  195   Tr[ns(na)] =   5.75532
    eigenvalues: 
  0.958  0.960  0.960
    eigenvectors:
  0.214  0.084  0.702
  0.008  0.857  0.136
  0.779  0.059  0.162
    occupations:
  0.960  0.000 -0.001
  0.000  0.960  0.000
 -0.001  0.000  0.958
atom  196   Tr[ns(na)] =   5.75451
    eigenvalues: 
  0.959  0.959  0.960
    eigenvectors:
  0.173  0.003  0.825
  0.517  0.397  0.087
  0.310  0.601  0.089
    occupations:
  0.960 -0.000 -0.000
 -0.000  0.959 -0.000
 -0.000 -0.000  0.959
atom  197   Tr[ns(na)] =   9.99185
    eigenvalues: 
  0.999  0.999  0.999  1.000  1.000
    eigenvectors:
  0.042  0.724  0.228  0.000  0.005
  0.246  0.023  0.001  0.313  0.417
  0.014  0.078  0.207  0.368  0.333
  0.016  0.129  0.556  0.194  0.105
  0.683  0.046  0.007  0.125  0.139
    occupations:
  0.999 -0.000  0.000  0.000  0.000
 -0.000  0.999 -0.000 -0.000 -0.001
  0.000 -0.000  1.000 -0.000 -0.000
  0.000 -0.000 -0.000  0.999  0.000
  0.000 -0.001 -0.000  0.000  0.999
atom  198   Tr[ns(na)] =   9.99152
    eigenvalues: 
  0.999  0.999  0.999  1.000  1.000
    eigenvectors:
  0.064  0.378  0.558  0.000  0.000
  0.002  0.182  0.106  0.695  0.015
  0.289  0.003  0.021  0.015  0.673
  0.640  0.005  0.043  0.007  0.305
  0.006  0.432  0.273  0.283  0.006
    occupations:
  0.999  0.000  0.000 -0.000 -0.000
  0.000  0.999  0.000 -0.000  0.000
  0.000  0.000  0.999  0.001 -0.000
 -0.000 -0.000  0.001  0.999  0.000
 -0.000  0.000 -0.000  0.000  0.999
atom  199   Tr[ns(na)] =   5.75492
    eigenvalues: 
  0.958  0.959  0.960
    eigenvectors:
  0.018  0.895  0.087
  0.107  0.057  0.836
  0.875  0.047  0.077
    occupations:
  0.959 -0.000  0.000
 -0.000  0.960 -0.000
  0.000 -0.000  0.959
atom  200   Tr[ns(na)] =   5.75513
    eigenvalues: 
  0.958  0.959  0.960
    eigenvectors:
  0.009  0.021  0.970
  0.476  0.523  0.001
  0.515  0.457  0.029
    occupations:
  0.960  0.000 -0.000
  0.000  0.959 -0.000
 -0.000 -0.000  0.959
N of occupied +U levels = 1534.996039
 --- exit write_ns ---

          k = 0.0000 0.0000 0.0000 ( 15523 PWs)   bands (ev):

   -10.4337 -10.4119 -10.3959 -10.3617  -9.8709  -9.8235  -9.7903  -9.7757
    -9.7599  -9.7548  -9.7505  -9.7337  -9.7258  -9.7123  -9.7087  -9.6921
    -9.6562  -9.6135  -9.5986  -9.5768  -9.5550  -9.5394  -9.5351  -9.5246
    -9.5070  -9.4964  -9.4948  -9.4871  -9.4826  -9.4801  -9.4670  -9.4649
    -9.4623  -9.4498  -9.4486  -9.4436  -9.4409  -9.4245  -9.4232  -9.4205
    -9.4063  -9.4039  -9.3982  -9.3964  -9.3931  -9.3868  -9.3767  -9.3726
    -9.3719  -9.3693  -9.3505  -9.3428  -9.3416  -9.3369  -9.3317  -9.3251
    -9.3248  -9.3184  -9.3136  -9.3028  -9.2997  -9.2968  -9.2910  -9.2898
    -9.2852  -9.2777  -9.2744  -9.2624  -9.2510  -9.2508  -9.2499  -9.2419
    -9.2413  -9.2386  -9.2357  -9.2323  -9.2280  -9.2274  -9.2151  -9.2118
    -9.2086  -9.2083  -9.1982  -9.1974  -9.1898  -9.1844  -9.1761  -9.1670
    -9.1669  -9.1621  -9.1503  -9.1458  -9.1440  -9.1232  -9.1178  -9.1016
    -9.0996  -9.0931  -9.0789  -9.0670  -3.0530  -3.0384  -2.9995  -2.9811
    -2.9198  -2.9150  -2.8996  -2.8960  -2.8654  -2.8566  -2.8456  -2.8095
    -2.7970  -2.7757  -2.7752  -2.7643  -2.7426  -2.7418  -2.7323  -2.7222
    -2.7172  -2.7120  -2.7037  -2.6952  -2.6835  -2.6680  -2.6648  -2.6604
    -2.6561  -2.6465  -2.6439  -2.6416  -2.6299  -2.6233  -2.6158  -2.6097
    -2.6010  -2.6009  -2.5932  -2.5762  -2.5686  -2.5638  -2.5572  -2.5531
    -2.5487  -2.5477  -2.5433  -2.5402  -2.5382  -2.5269  -2.5242  -2.5236
    -2.5183  -2.5161  -2.5128  -2.5063  -2.5059  -2.5052  -2.5030  -2.4864
    -2.4841  -2.4787  -2.4722  -2.4680  -2.4656  -2.4554  -2.4400  -2.4316
    -2.4287  -2.4262  -2.4178  -2.4166  -2.4053  -2.3932  -2.3907  -2.3751
    -2.3733  -2.3573  -2.3518  -2.3480  -2.3440  -2.3248  -2.3215  -2.3202
    -2.3161  -2.2977  -2.2868  -2.2731  -2.2679  -2.2629  -2.2596  -2.2477
    -2.2413  -2.2399  -2.2333  -2.2313  -2.2224  -2.2105  -2.2080  -2.1990
    -2.1939  -2.1935  -2.1903  -2.1878  -2.1778  -2.1733  -2.1643  -2.1615
    -2.1570  -2.1563  -2.1507  -2.1473  -2.1452  -2.1386  -2.1337  -2.1273
    -2.1252  -2.1167  -2.1152  -2.1152  -2.1118  -2.1052  -2.0964  -2.0962
    -2.0868  -2.0856  -2.0832  -2.0697  -2.0694  -2.0648  -2.0607  -2.0588
    -2.0569  -2.0514  -2.0513  -2.0493  -2.0462  -2.0378  -2.0245  -2.0243
    -2.0241  -2.0204  -2.0149  -2.0118  -2.0093  -2.0060  -2.0002  -2.0001
    -1.9899  -1.9892  -1.9867  -1.9828  -1.9785  -1.9782  -1.9764  -1.9716
    -1.9673  -1.9604  -1.9599  -1.9562  -1.9518  -1.9502  -1.9475  -1.9423
    -1.9367  -1.9297  -1.9259  -1.9196  -1.9173  -1.9128  -1.9099  -1.8991
    -1.8899  -1.8887  -1.8827  -1.8724  -1.8702  -1.8635  -1.8627  -1.8520
    -1.8458  -1.8419  -1.8395  -1.8321  -1.8283  -1.8227  -1.8197  -1.8140
    -1.8139  -1.8046  -1.8004  -1.7991  -1.7894  -1.7807  -1.7778  -1.7722
    -1.7687  -1.7609  -1.7597  -1.7568  -1.7475  -1.7445  -1.7427  -1.7248
    -1.7218  -1.7168  -1.7136  -1.7045  -1.7043  -1.6963  -1.6873  -1.6870
    -1.6732  -1.6698  -1.6656  -1.6632  -1.6601  -1.6507  -1.6498  -1.6483
    -1.6421  -1.6385  -1.6292  -1.6223  -1.6219  -1.6190  -1.5978  -1.5969
    -1.5939  -1.5905  -1.5869  -1.5825  -1.5738  -1.5565  -1.5564  -1.5508
    -1.5414  -1.5349  -1.5275  -1.5231  -1.5195  -1.5147  -1.5003  -1.4919
    -1.4826  -1.4797  -1.4710  -1.4662  -1.4651  -1.4603  -1.4525  -1.4464
    -1.4379  -1.4341  -1.4288  -1.4243  -1.4197  -1.4182  -1.4142  -1.4120
    -1.4087  -1.4010  -1.3974  -1.3899  -1.3885  -1.3864  -1.3824  -1.3772
    -1.3757  -1.3689  -1.3634  -1.3548  -1.3528  -1.3468  -1.3414  -1.3407
    -1.3350  -1.3344  -1.3227  -1.3194  -1.3173  -1.3158  -1.3032  -1.2970
    -1.2951  -1.2838  -1.2816  -1.2741  -1.2614  -1.2523  -1.2494  -1.2466
    -1.2405  -1.2367  -1.2346  -1.2277  -1.2253  -1.2166  -1.2079  -1.2028
    -1.2002  -1.1959  -1.1817  -1.1759  -1.1717  -1.1658  -1.1544  -1.1517
    -1.1405  -1.1317  -1.1264  -1.1227  -1.1130  -1.1074  -1.1018  -1.0947
    -1.0884  -1.0816  -1.0812  -1.0756  -1.0705  -1.0689  -1.0682  -1.0596
    -1.0561  -1.0556  -1.0447  -1.0415  -1.0388  -1.0334  -1.0253  -1.0244
    -1.0228  -1.0183  -1.0172  -1.0101  -1.0042  -1.0022  -0.9945  -0.9910
    -0.9856  -0.9807  -0.9802  -0.9797  -0.9693  -0.9596  -0.9557  -0.9549
    -0.9543  -0.9482  -0.9438  -0.9408  -0.9347  -0.9329  -0.9264  -0.9232
    -0.9201  -0.9168  -0.9158  -0.9136  -0.9093  -0.9003  -0.8942  -0.8924
    -0.8910  -0.8817  -0.8747  -0.8745  -0.8653  -0.8622  -0.8611  -0.8590
    -0.8553  -0.8545  -0.8476  -0.8467  -0.8436  -0.8402  -0.8339  -0.8311
    -0.8294  -0.8216  -0.8154  -0.8146  -0.8091  -0.8045  -0.8044  -0.7997
    -0.7984  -0.7844  -0.7843  -0.7767  -0.7735  -0.7696  -0.7656  -0.7625
    -0.7616  -0.7585  -0.7508  -0.7502  -0.7432  -0.7412  -0.7305  -0.7269
    -0.7234  -0.7227  -0.7168  -0.7080  -0.7036  -0.6952  -0.6944  -0.6906
    -0.6858  -0.6819  -0.6744  -0.6664  -0.6600  -0.6507  -0.6473  -0.6391
    -0.6348  -0.6285  -0.6177  -0.5966  -0.5912  -0.5879  -0.5842  -0.5792
    -0.5636  -0.5474  -0.5320  -0.5277  -0.5171  -0.4782  -0.4737  -0.4519
    -0.4334  -0.4173  -0.4101  -0.4094  -0.4041  -0.3948  -0.3803  -0.3675
    -0.3623  -0.3513  -0.3286  -0.3193  -0.2896  -0.2872  -0.2713  -0.2338
    -0.2104  -0.2082  -0.1779  -0.1552  -0.1077  -0.0816  -0.0758  -0.0383
    -0.0269  -0.0162   0.0086   0.0143   0.0264   0.0393   0.0414   0.0760
     0.0836   0.0991   0.1122   0.1216   0.1380   0.1403   0.1490   0.1656
     0.1970   0.2099   0.2113   0.2791   0.2977   0.3382   0.3624   0.3904
     0.5268   0.5572   0.5697   0.6211   0.7028   0.7047   0.7097   0.8570
     0.8837   0.9057   0.9265   0.9332   0.9550   0.9560   0.9687   0.9993
     1.0014   1.0155   1.0182   1.0377   1.0702   1.0994   1.1056   1.1091
     1.1502   1.1621   1.1670   1.1747   1.1844   1.1949   1.2041   1.2617
     1.2710   1.2967   1.3119   1.3238   1.3798   1.3816   1.3947   1.4039
     1.4134   1.4416   1.4791   1.4966   1.5107   1.5286   1.5330   1.5446
     1.5548   1.6325   1.6532   1.6610   1.6724   1.7066   1.7482   1.7787
     1.7799   1.8061   1.8146   1.8276   1.8600   1.8960   1.9139   1.9543
     1.9552   1.9809   1.9907   2.0417   2.0644   2.0835   2.0902   2.1507
     2.1962   2.2092   2.2279   2.2366   2.2378   2.2664   2.2802   2.2879
     2.3215   2.3449   2.4113   2.4126   2.4567   2.4623   2.4969   2.5419
     2.5645   2.5821   2.6280   2.6473   2.6751   2.6835   2.7071   2.7089
     2.7706   2.7734   2.8624   2.8872   2.8996   2.9195   2.9370   2.9445
     2.9696   2.9929   3.0238   3.0365   3.0482   3.0596   3.0671   3.0928
     3.1352   3.1353   3.1588   3.1664   3.2054   3.2057   3.2215   3.2364
     3.2472   3.2508   3.2555   3.2759   3.2820   3.2937   3.3130   3.3340
     3.3343   3.3635   3.3877   3.3990   3.4085   3.4252   3.4505   3.4667
     3.4835   3.5065   3.5077   3.5218   3.5656   3.5875   3.6324   3.6747
     3.6886   3.7093   3.7194   3.7373   3.7904   3.8072   3.8598   3.8673
     3.8987   3.8997   3.9116   3.9345   3.9434   3.9801   3.9804   3.9893
     4.0258   4.0391   4.0518   4.0521   4.0853   4.0858   4.1046   4.1200
     4.1346   4.1366   4.1833   4.1838   4.1859   4.2059   4.2321   4.2382
     4.2618   4.2827   4.2832   4.3039   4.3095   4.3478   4.3579   4.3590
     4.3738   4.3764   4.3868   4.3965   4.4152   4.4233   4.4248   4.4327
     4.4387   4.4503   4.4663   4.4728   4.4830   4.4833   4.4863   4.4910
     4.4996   4.5159   4.5229   4.5334   4.5388   4.5634   4.5770   4.5815
     4.5904   4.6017   4.6111   4.6182   4.6275   4.6300   4.6405   4.6411
     4.6465   4.6547   4.6619   4.6655   4.6740   4.6740   4.6857   4.6912
     4.6999   4.7052   4.7172   4.7259   4.7340   4.7437   4.7446   4.7525
     4.7554   4.7605   4.7790   4.7799   4.7847   4.7892   4.8030   4.8052
     4.8123   4.8277   4.8408   4.8424   4.8603   4.8657   4.8694   4.9062
     4.9191   4.9636   4.9922   5.0055   5.0266   5.0291   5.0526   5.0805
     5.0808   5.0821   5.1098   5.1133   5.1270   5.1458   5.1479   5.1698
     5.1780   5.1846   5.1966   5.2089   5.2123   5.2590   5.2604   5.2651
     5.2665   5.2866   5.3049   5.3079   5.3139   5.4769   5.5158   5.5410
     5.6018   5.6352   5.7130   5.7273   5.7299   5.7436   5.7505   5.7683
     5.7815   5.8294   5.8425   5.8525   5.8791   6.0670   6.1456   6.1650
     9.7510  11.4087  11.4475  11.4743  11.5203  11.5439  11.5770  12.3230
    12.4131  13.1779  13.2618  13.2751  13.3366  13.3470  13.3521  13.3780
    13.4145  13.4190  13.4370  13.4788  13.4993  13.5438  13.5493  13.6258
    13.6473  13.6558  13.6586  13.9603  13.9700  13.9961  14.0756  14.0858
    14.1005  14.2583  14.2631  14.2950  14.3228  14.3489  14.3878  14.4241
    14.4325  14.4363  14.4643  14.4677  14.5011  14.5242  14.5314  14.5522
    14.6093  14.6213  14.6298  14.6451  14.6571  14.6739  14.6814  14.7215
    14.7232  14.7529  15.4664  15.4952  15.5076  15.5146  15.5442  15.5714
    15.5816  15.5939  15.6249  15.6467  15.6572  15.6655  15.6802  15.6983
    15.7115  15.7240  15.7394  15.7480  15.7951  15.8403  15.8784  15.9151
    15.9286  15.9626  16.1179  16.1508  16.1864  16.2014  16.2259  16.2457
    16.2657  16.3135  16.3162  16.3486  16.3706  16.3850  16.4104  16.4144
    16.4362  16.4594  16.4718  16.4859  16.4949  16.5433  16.5590  16.5703
    16.5789  16.5839  16.5998  16.6126  16.6203  16.6547  16.7225  16.7337
    17.0407  17.0757  17.1144  17.1804  17.1873  17.2323  17.2779  17.3660
    17.3856  17.4121  17.4368  17.4578  17.4620  17.4779  17.5072  17.5291
    17.5511  17.5588  17.6003  17.6057  17.6207  17.6385  17.6487  17.6489
    17.6745  17.6933  17.6967  17.7028  17.7164  17.7283  17.7402  17.7523
    17.7599  17.7770  17.7884  17.8013  17.8271  17.8338  17.8426  17.8502
    17.8597  17.8652  17.8805  17.8869  17.9077  17.9232  17.9241  17.9290
    17.9465  17.9471  17.9523  17.9847  17.9965  17.9973  18.0393  18.1167
    18.1377  18.1504  18.1774  18.1973  18.2039  18.2083  18.2423  18.2536
    18.3006  18.3354  18.4018  18.5791  18.5919  18.6366  18.6762  18.6871
    18.7247  18.7375  18.7521  18.7957  18.8143  18.8301  18.8350  18.8404
    18.8473  18.8730  18.8825  18.8983  18.9164  18.9214  18.9245  18.9865
    19.0213  19.0488  19.0851  19.1159  19.1733  19.2497  19.2547  19.3281
    19.3469  19.3492  19.3653  19.5716  19.5732  19.6590  19.7015  19.7237
    19.7404  19.7861  19.8061  19.8176  19.8372  19.8633  19.8742  19.8870
    19.8914  19.9094  19.9126  19.9804  19.9998  20.0035  20.0464  20.0573
    20.0608  20.0681  20.0719  20.0855  20.1187  20.1232  20.1387  20.1606
    20.2019  20.2210  20.2644  20.3168  20.3429  20.3722  20.4013  20.4547
    20.4610  20.4957  20.5238  20.5302  20.5463  20.5683  20.5690  20.5988
    20.6151  20.6540  20.6591  20.7298  20.7398  20.7818  20.8009  20.8292
    20.8293  20.8859  20.9031  20.9113  20.9281  20.9395  20.9708  20.9805
    20.9981  21.0086  21.0212  21.0464  21.0549  21.1273  21.1441  21.2306
    21.2348  21.2709  21.2725  21.2874  21.3099  21.3402  21.3486  21.3979
    21.4181  21.4356  21.4518  21.4831  21.4892  21.5127  21.5217  21.7682
    21.8001  21.8384  21.8483  21.8489  21.8890  21.9131  21.9373  22.0354
    22.1222  22.1769  22.1839  22.1868  22.2607  22.2904  22.3299  22.3398
    22.3711  22.3741  22.4246  22.4472  22.4604  22.4825  22.4859  22.5230
    22.5527  22.5591  22.5959  22.6221  22.6257  22.6607  22.6627  22.6756
    22.6778  22.7127  22.7205  22.7353  22.7404  22.7457  22.7567  22.7747
    22.7779  22.7817  22.7978  22.8146  22.8184  22.8313  22.8352  22.8598
    22.8712  22.8742  22.8924  22.8994  22.9014  22.9037  22.9246  22.9288
    22.9445  22.9480  22.9584  22.9589  22.9744  22.9750  22.9812  22.9979
    23.0044  23.0169  23.0296  23.0512  23.0669  23.1076  23.1088  23.3143
    23.3679  23.4379  23.4744  23.4843  23.5067  23.5571  23.5654  23.5926
    23.5930  23.6163  23.6263  23.6807  23.6877  23.7205  23.7410  23.7462
    23.7699  23.7763  23.8460  23.8487  23.9436  23.9662  23.9777  23.9829
    23.9902  24.0230  24.1486  24.2193  24.2364  24.2761  24.3023  24.3086
    24.5092  24.5608  24.5666  24.6429  24.6907  24.7159  24.8699  24.8885
    24.8921  24.9141  24.9374  24.9511  25.0978  25.1059  25.1264  25.1507
    25.1697  25.1955  25.1957  25.2171  25.2365  25.2575  25.2828  25.3164
    25.3900  25.3901  25.3957  25.4280  25.4291  25.4655  25.5467  25.5708
    25.5804  25.5894  25.5900  25.6277  25.6445  25.6686  25.7166  25.7471

     highest occupied, lowest unoccupied level (ev):     6.1650    9.7510

!    total energy              =  -15359.43393463 Ry
     Harris-Foulkes estimate   =  -15359.43393480 Ry
     estimated scf accuracy    <       0.00000028 Ry

     The total energy is the sum of the following terms:

     one-electron contribution =   -7787.05908458 Ry
     hartree contribution      =    5735.95259604 Ry
     xc contribution           =   -2513.38727762 Ry
     ewald contribution        =  -10801.22335905 Ry
     Hubbard energy            =       6.28319058 Ry

     convergence has been achieved in   9 iterations

     Writing output data file espresso.save

     init_run     :     38.19s CPU     45.07s WALL (       1 calls)
     electrons    :   1080.86s CPU   1194.03s WALL (       1 calls)

     Called by init_run:
     wfcinit      :     28.23s CPU     33.39s WALL (       1 calls)
     potinit      :      4.34s CPU      4.94s WALL (       1 calls)

     Called by electrons:
     c_bands      :   1009.66s CPU   1105.85s WALL (       9 calls)
     sum_band     :     60.83s CPU     74.89s WALL (       9 calls)
     v_of_rho     :      2.80s CPU      3.71s WALL (      10 calls)
     newd         :      7.91s CPU      9.70s WALL (      10 calls)
     mix_rho      :      0.50s CPU      0.60s WALL (       9 calls)

     Called by c_bands:
     init_us_2    :      0.88s CPU      0.99s WALL (      20 calls)
     regterg      :   1007.08s CPU   1101.08s WALL (       9 calls)

     Called by sum_band:
     sum_band:bec :      1.05s CPU      1.30s WALL (       9 calls)
     addusdens    :      7.33s CPU      9.93s WALL (       9 calls)

     Called by *egterg:
     h_psi        :    334.42s CPU    390.95s WALL (      43 calls)
     s_psi        :     49.48s CPU     55.57s WALL (      44 calls)
     g_psi        :      0.08s CPU      0.13s WALL (      33 calls)
     rdiaghg      :    500.56s CPU    503.85s WALL (      42 calls)

     Called by h_psi:
     h_psi:pot    :    187.58s CPU    221.49s WALL (      43 calls)
     h_psi:calbec :     44.73s CPU     55.45s WALL (      43 calls)
     vloc_psi     :     93.97s CPU    110.99s WALL (      43 calls)
     add_vuspsi   :     48.88s CPU     55.05s WALL (      43 calls)
     vhpsi        :    146.16s CPU    168.86s WALL (      43 calls)

     General routines
     calbec       :     82.64s CPU    103.11s WALL (     105 calls)
     fft          :      2.61s CPU      4.35s WALL (     155 calls)
     ffts         :      0.02s CPU      0.23s WALL (      19 calls)
     fftw         :     71.91s CPU     85.37s WALL (   36464 calls)
     interpolate  :      0.27s CPU      0.79s WALL (      19 calls)

     Parallel routines
     fft_scatter  :     33.62s CPU     43.63s WALL (   36638 calls)

     Hubbard U routines
     new_ns       :      5.70s CPU      6.80s WALL (       9 calls)
     vhpsi        :    146.16s CPU    168.86s WALL (      43 calls)

     PWSCF        : 18m39.80s CPU    20m40.80s WALL


   This run was terminated on:   7:13: 6  12Jan2023            

=------------------------------------------------------------------------------=
   JOB DONE.
=------------------------------------------------------------------------------=
