
     Program PWSCF v.6.1 starts on 13Jan2023 at 20: 6:46 

     This program is part of the open-source Quantum ESPRESSO suite
     for quantum simulation of materials; please cite
         "P. Giannozzi et al., J. Phys.:Condens. Matter 21 395502 (2009);
          URL http://www.quantum-espresso.org", 
     in publications or presentations arising from this work. More details at
     http://www.quantum-espresso.org/quote

     Parallel version (MPI & OpenMP), running on      10 processor cores
     Number of MPI processes:                10
     Threads/MPI process:                     1
     R & G space division:  proc/nbgrp/npool/nimage =      10
     Reading input from espresso.in

     Current dimensions of program PWSCF are:
     Max number of different atomic species (ntypx) = 10
     Max number of k-points (npk) =  40000
     Max angular momentum in pseudopotentials (lmaxx) =  3
               file O.pbe-rrkjus.UPF: wavefunction(s)  2S renormalized

     gamma-point specific algorithms are used

     Subspace diagonalization in iterative solution of the eigenvalue problem:
     a serial algorithm will be used


     Parallelization info
     --------------------
     sticks:   dense  smooth     PW     G-vecs:    dense   smooth      PW
     Min        1366     608    151                83131    24639    3088
     Max        1369     612    152                83138    24642    3092
     Sum       13669    6103   1519               831333   246403   30901


     Title: 
     zno_al5_crystal_opted(SCF)                                                 


     bravais-lattice index     =            0
     lattice parameter (alat)  =      29.7222  a.u.
     unit-cell volume          =   14590.1235 (a.u.)^3
     number of atoms/cell      =          200
     number of atomic types    =            3
     number of electrons       =      1750.00
     number of Kohn-Sham states=         1320
     kinetic-energy cutoff     =      25.0000  Ry
     charge density cutoff     =     225.0000  Ry
     convergence threshold     =      1.0E-06
     mixing beta               =       0.7000
     number of iterations used =            8  plain     mixing
     Exchange-correlation      =  SLA  PW   PBE  PBE ( 1  4  3  4 0 0)

     celldm(1)=  29.722176  celldm(2)=   0.000000  celldm(3)=   0.000000
     celldm(4)=   0.000000  celldm(5)=   0.000000  celldm(6)=   0.000000

     crystal axes: (cart. coord. in units of alat)
               a(1) = (   1.000000   0.000014  -0.000044 )  
               a(2) = (  -0.499988   0.866032   0.000044 )  
               a(3) = (  -0.000028   0.000016   0.641623 )  

     reciprocal axes: (cart. coord. in units 2 pi/alat)
               b(1) = (  0.999992  0.577327  0.000029 )  
               b(2) = ( -0.000016  1.154682 -0.000030 )  
               b(3) = (  0.000069 -0.000040  1.558549 )  


     PseudoPot. # 1 for Zn read from file:
     C:\Users\Dimas\.burai\.pseudopot/Zn.pbe-van.UPF
     MD5 check sum: 8a117cd81793830d6ad9bd6443d05479
     Pseudo is Ultrasoft, Zval = 12.0
     Generated by new atomic code, or converted to UPF format
     Using radial grid of  869 points,  6 beta functions with: 
                l(1) =   0
                l(2) =   0
                l(3) =   1
                l(4) =   1
                l(5) =   2
                l(6) =   2
     Q(r) pseudized with  8 coefficients,  rinner =    0.800   0.800   0.800
                                                       0.800   0.800

     PseudoPot. # 2 for O  read from file:
     C:\Users\Dimas\.burai\.pseudopot/O.pbe-rrkjus.UPF
     MD5 check sum: 390ba29e75625707450f3bd3f0eb6be9
     Pseudo is Ultrasoft, Zval =  6.0
     Generated by new atomic code, or converted to UPF format
     Using radial grid of 1269 points,  4 beta functions with: 
                l(1) =   0
                l(2) =   0
                l(3) =   1
                l(4) =   1
     Q(r) pseudized with 0 coefficients 


     PseudoPot. # 3 for Al read from file:
     C:\Users\Dimas\.burai\.pseudopot/Al.pbe-rrkj.UPF
     MD5 check sum: b5320f8fdc07ab0d74f109f4aa58256b
     Pseudo is Norm-conserving, Zval =  3.0
     Generated by new atomic code, or converted to UPF format
     Using radial grid of  879 points,  4 beta functions with: 
                l(1) =   0
                l(2) =   0
                l(3) =   1
                l(4) =   1

     atomic species   valence    mass     pseudopotential
        Zn            12.00    65.39000     Zn( 1.00)
        O              6.00    15.99940     O ( 1.00)
        Al             3.00    26.98154     Al( 1.00)


     Simplified LDA+U calculation (l_max = 2) with parameters (eV):
     atomic species    L          U    alpha       J0     beta
        Zn             2    10.5000   0.0000   0.0000   0.0000
        O              1     7.0000   0.0000   0.0000   0.0000



      2 Sym. Ops. (no inversion) found



   Cartesian axes

     site n.     atom                  positions (alat units)
         1           Zn  tau(   1) = (   0.1001202   0.0577140   0.1595032  )
         2           Zn  tau(   2) = (  -0.0000282   0.1146756   0.6404270  )
         3           O   tau(   3) = (   0.1007758   0.0588239   0.2823007  )
         4           O   tau(   4) = (   0.0002907   0.1161779   0.1212164  )
         5           Zn  tau(   5) = (   0.0997836   0.0570163   0.4790364  )
         6           Zn  tau(   6) = (  -0.0006845   0.1157802   0.3182767  )
         7           O   tau(   7) = (   0.1006222   0.0584293   0.6008805  )
         8           O   tau(   8) = (   0.0011476   0.1162918   0.4406828  )
         9           Zn  tau(   9) = (  -0.0011109   0.2304363   0.1604071  )
        10           Zn  tau(  10) = (  -0.0992668   0.2878301   0.6400444  )
        11           O   tau(  11) = (   0.0007172   0.2337296   0.2831687  )
        12           O   tau(  12) = (  -0.1001514   0.2899464   0.1212868  )
        13           Zn  tau(  13) = (  -0.0002101   0.2302124   0.4807628  )
        14           Zn  tau(  14) = (  -0.1015912   0.2888949   0.3207962  )
        15           O   tau(  15) = (   0.0019995   0.2311613   0.6026210  )
        16           O   tau(  16) = (  -0.0986576   0.2894853   0.4431400  )
        17           Zn  tau(  17) = (  -0.1009305   0.4040671   0.1601734  )
        18           Zn  tau(  18) = (  -0.2000649   0.4618480   0.6394758  )
        19           O   tau(  19) = (  -0.0978559   0.4050506   0.2821412  )
        20           O   tau(  20) = (  -0.1998010   0.4610276   0.1206616  )
        21           Zn  tau(  21) = (  -0.0998972   0.4048678   0.4818977  )
        22           Zn  tau(  22) = (  -0.2002778   0.4613046   0.3206740  )
        23           O   tau(  23) = (  -0.0981287   0.4045505   0.6044257  )
        24           O   tau(  24) = (  -0.1997982   0.4617650   0.4429904  )
        25           Zn  tau(  25) = (  -0.2001821   0.5767141   0.1588803  )
        26           Zn  tau(  26) = (  -0.3008186   0.6354563   0.6399460  )
        27           O   tau(  27) = (  -0.1983270   0.5764236   0.2808636  )
        28           O   tau(  28) = (  -0.2990746   0.6343380   0.1209110  )
        29           Zn  tau(  29) = (  -0.2003758   0.5779806   0.4804481  )
        30           Zn  tau(  30) = (  -0.2991369   0.6347700   0.3184846  )
        31           O   tau(  31) = (  -0.1996342   0.5778279   0.6032129  )
        32           O   tau(  32) = (  -0.3007848   0.6349160   0.4410879  )
        33           Zn  tau(  33) = (  -0.3000367   0.7505908   0.1581621  )
        34           Zn  tau(  34) = (  -0.4005767   0.8086376   0.6400529  )
        35           O   tau(  35) = (  -0.2993056   0.7501687   0.2804778  )
        36           O   tau(  36) = (  -0.4003437   0.8085031   0.1208590  )
        37           Zn  tau(  37) = (  -0.2998379   0.7504761   0.4797383  )
        38           Zn  tau(  38) = (  -0.3994884   0.8080093   0.3177690  )
        39           O   tau(  39) = (  -0.3004358   0.7508213   0.6018763  )
        40           O   tau(  40) = (  -0.3998494   0.8082177   0.4405692  )
        41           Zn  tau(  41) = (   0.2997932   0.0573097   0.1597966  )
        42           Zn  tau(  42) = (   0.1996057   0.1147494   0.6412882  )
        43           O   tau(  43) = (   0.2998968   0.0587452   0.2826224  )
        44           O   tau(  44) = (   0.2003543   0.1174529   0.1210882  )
        45           Zn  tau(  45) = (   0.2999701   0.0572486   0.4797526  )
        46           Zn  tau(  46) = (   0.2000954   0.1154557   0.3200265  )
        47           O   tau(  47) = (   0.2994782   0.0589050   0.6016873  )
        48           O   tau(  48) = (   0.2002795   0.1256063   0.4453235  )
        49           Zn  tau(  49) = (   0.1996330   0.2307596   0.1626491  )
        50           Zn  tau(  50) = (   0.1002454   0.2875186   0.0018784  )
        51           O   tau(  51) = (   0.2001136   0.2332222   0.2849655  )
        52           O   tau(  52) = (   0.1000920   0.2905650   0.1237925  )
        53           Al  tau(  53) = (   0.2001984   0.2308812   0.4818877  )
        54           Zn  tau(  54) = (   0.0991577   0.2888613   0.3221213  )
        55           O   tau(  55) = (   0.2004819   0.2318237   0.5941614  )
        56           O   tau(  56) = (   0.1088497   0.2859123   0.4467765  )
        57           Zn  tau(  57) = (   0.0986098   0.4038803   0.1631616  )
        58           Zn  tau(  58) = (   0.0007038   0.4609398   0.0013322  )
        59           O   tau(  59) = (   0.1075119   0.4091725   0.2885985  )
        60           O   tau(  60) = (   0.0009723   0.4704695   0.1272335  )
        61           Zn  tau(  61) = (   0.1003281   0.4039586   0.4844194  )
        62           Zn  tau(  62) = (  -0.0009794   0.4628013   0.3226498  )
        63           O   tau(  63) = (   0.1018583   0.4038760   0.6055654  )
        64           O   tau(  64) = (   0.0027897   0.4617003   0.4435474  )
        65           Al  tau(  65) = (  -0.0003557   0.5775699   0.1607393  )
        66           Zn  tau(  66) = (  -0.1004651   0.6353681   0.6407552  )
        67           O   tau(  67) = (   0.0013178   0.5766037   0.2732284  )
        68           O   tau(  68) = (  -0.0916524   0.6302801   0.1247688  )
        69           Zn  tau(  69) = (   0.0000005   0.5773643   0.4845046  )
        70           Zn  tau(  70) = (  -0.1003415   0.6352967   0.3207350  )
        71           O   tau(  71) = (   0.0012521   0.5766417   0.6065264  )
        72           O   tau(  72) = (  -0.0981553   0.6340346   0.4421138  )
        73           Zn  tau(  73) = (  -0.0995277   0.7510526   0.1588803  )
        74           Zn  tau(  74) = (  -0.2007182   0.8088352   0.6399460  )
        75           O   tau(  75) = (  -0.0983486   0.7495912   0.2808636  )
        76           O   tau(  76) = (  -0.1988778   0.8078841   0.1209110  )
        77           Zn  tau(  77) = (  -0.1007214   0.7505871   0.4804481  )
        78           Zn  tau(  78) = (  -0.1992830   0.8077220   0.3184846  )
        79           O   tau(  79) = (  -0.1002184   0.7500212   0.6032129  )
        80           O   tau(  80) = (  -0.2002334   0.8090761   0.4410879  )
        81           Zn  tau(  81) = (   0.5002483   0.0573800   0.1591775  )
        82           Zn  tau(  82) = (   0.3994796   0.1149566  -0.0000006  )
        83           O   tau(  83) = (   0.5009774   0.0583089   0.2812642  )
        84           O   tau(  84) = (   0.4004682   0.1162172   0.1224614  )
        85           Zn  tau(  85) = (   0.4996016   0.0580905   0.4806286  )
        86           Zn  tau(  86) = (   0.4007464   0.1152818   0.3198277  )
        87           O   tau(  87) = (   0.4999931   0.0585284   0.6034358  )
        88           O   tau(  88) = (   0.3991786   0.1169260   0.4422809  )
        89           Zn  tau(  89) = (   0.4001846   0.2305224   0.1608899  )
        90           Zn  tau(  90) = (   0.2990199   0.2890395   0.0025055  )
        91           O   tau(  91) = (   0.4001437   0.2330985   0.2834219  )
        92           O   tau(  92) = (   0.3001380   0.2900637   0.1243932  )
        93           Zn  tau(  93) = (   0.3999563   0.2300959   0.4834060  )
        94           Zn  tau(  94) = (   0.3010177   0.2878041   0.3220822  )
        95           O   tau(  95) = (   0.3985494   0.2323152   0.6053060  )
        96           O   tau(  96) = (   0.2923687   0.2861747   0.4471078  )
        97           Zn  tau(  97) = (   0.2997648   0.4042953   0.1641113  )
        98           Zn  tau(  98) = (   0.2003121   0.4617143   0.0056614  )
        99           O   tau(  99) = (   0.2926028   0.4084303   0.2903747  )
       100           O   tau( 100) = (   0.1991187   0.4624033   0.1280420  )
       101           Zn  tau( 101) = (   0.3002922   0.4039908   0.4836143  )
       102           Al  tau( 102) = (   0.1998030   0.4620082   0.3235245  )
       103           O   tau( 103) = (   0.2989609   0.4047595   0.6042324  )
       104           O   tau( 104) = (   0.2008961   0.4613772   0.4359630  )
       105           Zn  tau( 105) = (   0.1995467   0.5787081   0.1631616  )
       106           Zn  tau( 106) = (   0.1011787   0.6349674   0.0013322  )
       107           O   tau( 107) = (   0.1994145   0.5683526   0.2885985  )
       108           O   tau( 108) = (   0.0930600   0.6299700   0.1272335  )
       109           Zn  tau( 109) = (   0.2003380   0.5771808   0.4844194  )
       110           Zn  tau( 110) = (   0.0987250   0.6354944   0.3226498  )
       111           O   tau( 111) = (   0.2011746   0.5758970   0.6055654  )
       112           O   tau( 112) = (   0.1015631   0.6327807   0.4435474  )
       113           Zn  tau( 113) = (   0.0996147   0.7514217   0.1601734  )
       114           Zn  tau( 114) = (   0.0000078   0.8083842   0.6394758  )
       115           O   tau( 115) = (   0.1003003   0.7482672   0.2821412  )
       116           O   tau( 116) = (   0.0008503   0.8085658   0.1206616  )
       117           Zn  tau( 117) = (   0.0994380   0.7501265   0.4818977  )
       118           Zn  tau( 118) = (   0.0003719   0.8088402   0.3206740  )
       119           O   tau( 119) = (   0.1005971   0.7487535   0.6044257  )
       120           O   tau( 120) = (   0.0002130   0.8081947   0.4429904  )
       121           Zn  tau( 121) = (   0.7005213   0.0575923   0.1583693  )
       122           Zn  tau( 122) = (   0.6000593   0.1152840   0.6405481  )
       123           O   tau( 123) = (   0.6994194   0.0580293   0.2804573  )
       124           O   tau( 124) = (   0.5999867   0.1245279   0.1243418  )
       125           Zn  tau( 125) = (   0.6995726   0.0578144   0.4802438  )
       126           Zn  tau( 126) = (   0.6006209   0.1154846   0.3206813  )
       127           O   tau( 127) = (   0.6991151   0.0575750   0.6030144  )
       128           O   tau( 128) = (   0.5993536   0.1172301   0.4419461  )
       129           Al  tau( 129) = (   0.6004226   0.2307104   0.1595888  )
       130           Zn  tau( 130) = (   0.4991984   0.2891522   0.0007329  )
       131           O   tau( 131) = (   0.5999346   0.2309922   0.2720839  )
       132           O   tau( 132) = (   0.5075253   0.2843447   0.1259797  )
       133           Zn  tau( 133) = (   0.5988498   0.2316185   0.4829013  )
       134           Zn  tau( 134) = (   0.5018482   0.2876224   0.3219713  )
       135           O   tau( 135) = (   0.5987514   0.2316753   0.6049732  )
       136           O   tau( 136) = (   0.4974284   0.2901742   0.4435001  )
       137           Zn  tau( 137) = (   0.5004664   0.4042157   0.1608899  )
       138           Zn  tau( 138) = (   0.3992067   0.4625683   0.0025055  )
       139           O   tau( 139) = (   0.4982150   0.4029630   0.2834219  )
       140           O   tau( 140) = (   0.3988788   0.4610879   0.1243932  )
       141           Zn  tau( 141) = (   0.5007217   0.4046266   0.4834060  )
       142           Zn  tau( 142) = (   0.4012756   0.4614558   0.3220822  )
       143           O   tau( 143) = (   0.4980963   0.4047354   0.6053060  )
       144           O   tau( 144) = (   0.3983622   0.4697608   0.4471078  )
       145           Zn  tau( 145) = (   0.3999852   0.5777798   0.1626491  )
       146           Zn  tau( 146) = (   0.3011366   0.6354725   0.0018784  )
       147           O   tau( 147) = (   0.3980928   0.5761323   0.2849655  )
       148           O   tau( 148) = (   0.2984217   0.6340821   0.1237925  )
       149           Al  tau( 149) = (   0.4001626   0.5772294   0.4818877  )
       150           Zn  tau( 150) = (   0.2994300   0.6357431   0.3221213  )
       151           O   tau( 151) = (   0.3994882   0.5765126   0.5941614  )
       152           O   tau( 152) = (   0.3068299   0.6288241   0.4467765  )
       153           Zn  tau( 153) = (   0.2998932   0.7517908   0.1604071  )
       154           Zn  tau( 154) = (   0.2011108   0.8080994   0.6400444  )
       155           O   tau( 155) = (   0.2979553   0.7485610   0.2831687  )
       156           O   tau( 156) = (   0.1988357   0.8078073   0.1212868  )
       157           Zn  tau( 157) = (   0.3005376   0.7511226   0.4807628  )
       158           Zn  tau( 158) = (   0.1990264   0.8095800   0.3207962  )
       159           O   tau( 159) = (   0.3008206   0.7487346   0.6026210  )
       160           O   tau( 160) = (   0.1999820   0.8067442   0.4431400  )
       161           Zn  tau( 161) = (   0.8996088   0.0579752   0.1579171  )
       162           Zn  tau( 162) = (   0.8006139   0.1151300   0.6385208  )
       163           O   tau( 163) = (   0.8995359   0.0580173   0.2804209  )
       164           O   tau( 164) = (   0.7991758   0.1159602   0.1195052  )
       165           Zn  tau( 165) = (   0.9005831   0.0574127   0.4782780  )
       166           Zn  tau( 166) = (   0.7998840   0.1155514   0.3197030  )
       167           O   tau( 167) = (   0.9004982   0.0574617   0.6007522  )
       168           O   tau( 168) = (   0.7997061   0.1156541   0.4419693  )
       169           Zn  tau( 169) = (   0.8003967   0.2305815   0.1583693  )
       170           Zn  tau( 170) = (   0.7002032   0.2887383   0.6405481  )
       171           O   tau( 171) = (   0.7994673   0.2313173   0.2804573  )
       172           O   tau( 172) = (   0.6921614   0.2841792   0.1243418  )
       173           Zn  tau( 173) = (   0.7997299   0.2312921   0.4802438  )
       174           Zn  tau( 174) = (   0.7003103   0.2881516   0.3206813  )
       175           O   tau( 175) = (   0.7997085   0.2318079   0.6030144  )
       176           O   tau( 176) = (   0.6981649   0.2883764   0.4419461  )
       177           Zn  tau( 177) = (   0.7004440   0.4041292   0.1591775  )
       178           Zn  tau( 178) = (   0.6001968   0.4626091  -0.0000006  )
       179           O   tau( 179) = (   0.7000041   0.4030333   0.2812642  )
       180           O   tau( 180) = (   0.5995994   0.4611226   0.1224614  )
       181           Zn  tau( 181) = (   0.6995053   0.4043340   0.4806286  )
       182           Zn  tau( 182) = (   0.6005487   0.4613494   0.3198277  )
       183           O   tau( 183) = (   0.6993219   0.4037759   0.6034358  )
       184           O   tau( 184) = (   0.5983408   0.4618851   0.4422809  )
       185           Zn  tau( 185) = (   0.6002774   0.5777635   0.1597966  )
       186           Zn  tau( 186) = (   0.5004394   0.6358085   0.6412882  )
       187           O   tau( 187) = (   0.5990859   0.5769560   0.2826224  )
       188           O   tau( 188) = (   0.4984723   0.6338085   0.1210882  )
       189           Zn  tau( 189) = (   0.6004187   0.5776409   0.4797526  )
       190           Zn  tau( 190) = (   0.5000726   0.6350313   0.3200265  )
       191           O   tau( 191) = (   0.5987383   0.5772387   0.6016873  )
       192           O   tau( 192) = (   0.4913740   0.6297966   0.4453235  )
       193           Zn  tau( 193) = (   0.5000908   0.7504832   0.1595032  )
       194           Zn  tau( 194) = (   0.4006863   0.8087335   0.6404270  )
       195           O   tau( 195) = (   0.4994573   0.7493605   0.2823007  )
       196           O   tau( 196) = (   0.3995447   0.8077061   0.1212164  )
       197           Zn  tau( 197) = (   0.5005266   0.7511236   0.4790364  )
       198           Zn  tau( 198) = (   0.3994015   0.8087495   0.3182767  )
       199           O   tau( 199) = (   0.4997222   0.7496908   0.6008805  )
       200           O   tau( 200) = (   0.3998746   0.8069071   0.4406828  )

     number of k points=     1
                       cart. coord. in units 2pi/alat
        k(    1) = (   0.0000000   0.0000000   0.0000000), wk =   2.0000000

     Dense  grid:   415667 G-vectors     FFT dimensions: ( 144, 144,  96)

     Smooth grid:   123202 G-vectors     FFT dimensions: (  96,  96,  64)

     Estimated max dynamical RAM per process >     840.07MB

     Estimated total allocated dynamical RAM >    8400.67MB

     Initial potential from superposition of free atoms

     starting charge 1754.97260, renormalised to 1750.00000
     Number of +U iterations with fixed ns =  0
     Starting occupations:
 --- enter write_ns ---
 LDA+U parameters:
U( 1)     = 10.50000000
alpha( 1) =  0.00000000
U( 2)     =  7.00000000
alpha( 2) =  0.00000000
atom    1   Tr[ns(na)] =  10.00000
    eigenvalues: 
  1.000  1.000  1.000  1.000  1.000
    eigenvectors:
  1.000  0.000  0.000  0.000  0.000
  0.000  1.000  0.000  0.000  0.000
  0.000  0.000  1.000  0.000  0.000
  0.000  0.000  0.000  1.000  0.000
  0.000  0.000  0.000  0.000  1.000
    occupations:
  1.000  0.000  0.000  0.000  0.000
  0.000  1.000  0.000  0.000  0.000
  0.000  0.000  1.000  0.000  0.000
  0.000  0.000  0.000  1.000  0.000
  0.000  0.000  0.000  0.000  1.000
atom    2   Tr[ns(na)] =  10.00000
    eigenvalues: 
  1.000  1.000  1.000  1.000  1.000
    eigenvectors:
  1.000  0.000  0.000  0.000  0.000
  0.000  1.000  0.000  0.000  0.000
  0.000  0.000  1.000  0.000  0.000
  0.000  0.000  0.000  1.000  0.000
  0.000  0.000  0.000  0.000  1.000
    occupations:
  1.000  0.000  0.000  0.000  0.000
  0.000  1.000  0.000  0.000  0.000
  0.000  0.000  1.000  0.000  0.000
  0.000  0.000  0.000  1.000  0.000
  0.000  0.000  0.000  0.000  1.000
atom    3   Tr[ns(na)] =   4.00000
    eigenvalues: 
  0.667  0.667  0.667
    eigenvectors:
  1.000  0.000  0.000
  0.000  1.000  0.000
  0.000  0.000  1.000
    occupations:
  0.667  0.000  0.000
  0.000  0.667  0.000
  0.000  0.000  0.667
atom    4   Tr[ns(na)] =   4.00000
    eigenvalues: 
  0.667  0.667  0.667
    eigenvectors:
  1.000  0.000  0.000
  0.000  1.000  0.000
  0.000  0.000  1.000
    occupations:
  0.667  0.000  0.000
  0.000  0.667  0.000
  0.000  0.000  0.667
atom    5   Tr[ns(na)] =  10.00000
    eigenvalues: 
  1.000  1.000  1.000  1.000  1.000
    eigenvectors:
  1.000  0.000  0.000  0.000  0.000
  0.000  1.000  0.000  0.000  0.000
  0.000  0.000  1.000  0.000  0.000
  0.000  0.000  0.000  1.000  0.000
  0.000  0.000  0.000  0.000  1.000
    occupations:
  1.000  0.000  0.000  0.000  0.000
  0.000  1.000  0.000  0.000  0.000
  0.000  0.000  1.000  0.000  0.000
  0.000  0.000  0.000  1.000  0.000
  0.000  0.000  0.000  0.000  1.000
atom    6   Tr[ns(na)] =  10.00000
    eigenvalues: 
  1.000  1.000  1.000  1.000  1.000
    eigenvectors:
  1.000  0.000  0.000  0.000  0.000
  0.000  1.000  0.000  0.000  0.000
  0.000  0.000  1.000  0.000  0.000
  0.000  0.000  0.000  1.000  0.000
  0.000  0.000  0.000  0.000  1.000
    occupations:
  1.000  0.000  0.000  0.000  0.000
  0.000  1.000  0.000  0.000  0.000
  0.000  0.000  1.000  0.000  0.000
  0.000  0.000  0.000  1.000  0.000
  0.000  0.000  0.000  0.000  1.000
atom    7   Tr[ns(na)] =   4.00000
    eigenvalues: 
  0.667  0.667  0.667
    eigenvectors:
  1.000  0.000  0.000
  0.000  1.000  0.000
  0.000  0.000  1.000
    occupations:
  0.667  0.000  0.000
  0.000  0.667  0.000
  0.000  0.000  0.667
atom    8   Tr[ns(na)] =   4.00000
    eigenvalues: 
  0.667  0.667  0.667
    eigenvectors:
  1.000  0.000  0.000
  0.000  1.000  0.000
  0.000  0.000  1.000
    occupations:
  0.667  0.000  0.000
  0.000  0.667  0.000
  0.000  0.000  0.667
atom    9   Tr[ns(na)] =  10.00000
    eigenvalues: 
  1.000  1.000  1.000  1.000  1.000
    eigenvectors:
  1.000  0.000  0.000  0.000  0.000
  0.000  1.000  0.000  0.000  0.000
  0.000  0.000  1.000  0.000  0.000
  0.000  0.000  0.000  1.000  0.000
  0.000  0.000  0.000  0.000  1.000
    occupations:
  1.000  0.000  0.000  0.000  0.000
  0.000  1.000  0.000  0.000  0.000
  0.000  0.000  1.000  0.000  0.000
  0.000  0.000  0.000  1.000  0.000
  0.000  0.000  0.000  0.000  1.000
atom   10   Tr[ns(na)] =  10.00000
    eigenvalues: 
  1.000  1.000  1.000  1.000  1.000
    eigenvectors:
  1.000  0.000  0.000  0.000  0.000
  0.000  1.000  0.000  0.000  0.000
  0.000  0.000  1.000  0.000  0.000
  0.000  0.000  0.000  1.000  0.000
  0.000  0.000  0.000  0.000  1.000
    occupations:
  1.000  0.000  0.000  0.000  0.000
  0.000  1.000  0.000  0.000  0.000
  0.000  0.000  1.000  0.000  0.000
  0.000  0.000  0.000  1.000  0.000
  0.000  0.000  0.000  0.000  1.000
atom   11   Tr[ns(na)] =   4.00000
    eigenvalues: 
  0.667  0.667  0.667
    eigenvectors:
  1.000  0.000  0.000
  0.000  1.000  0.000
  0.000  0.000  1.000
    occupations:
  0.667  0.000  0.000
  0.000  0.667  0.000
  0.000  0.000  0.667
atom   12   Tr[ns(na)] =   4.00000
    eigenvalues: 
  0.667  0.667  0.667
    eigenvectors:
  1.000  0.000  0.000
  0.000  1.000  0.000
  0.000  0.000  1.000
    occupations:
  0.667  0.000  0.000
  0.000  0.667  0.000
  0.000  0.000  0.667
atom   13   Tr[ns(na)] =  10.00000
    eigenvalues: 
  1.000  1.000  1.000  1.000  1.000
    eigenvectors:
  1.000  0.000  0.000  0.000  0.000
  0.000  1.000  0.000  0.000  0.000
  0.000  0.000  1.000  0.000  0.000
  0.000  0.000  0.000  1.000  0.000
  0.000  0.000  0.000  0.000  1.000
    occupations:
  1.000  0.000  0.000  0.000  0.000
  0.000  1.000  0.000  0.000  0.000
  0.000  0.000  1.000  0.000  0.000
  0.000  0.000  0.000  1.000  0.000
  0.000  0.000  0.000  0.000  1.000
atom   14   Tr[ns(na)] =  10.00000
    eigenvalues: 
  1.000  1.000  1.000  1.000  1.000
    eigenvectors:
  1.000  0.000  0.000  0.000  0.000
  0.000  1.000  0.000  0.000  0.000
  0.000  0.000  1.000  0.000  0.000
  0.000  0.000  0.000  1.000  0.000
  0.000  0.000  0.000  0.000  1.000
    occupations:
  1.000  0.000  0.000  0.000  0.000
  0.000  1.000  0.000  0.000  0.000
  0.000  0.000  1.000  0.000  0.000
  0.000  0.000  0.000  1.000  0.000
  0.000  0.000  0.000  0.000  1.000
atom   15   Tr[ns(na)] =   4.00000
    eigenvalues: 
  0.667  0.667  0.667
    eigenvectors:
  1.000  0.000  0.000
  0.000  1.000  0.000
  0.000  0.000  1.000
    occupations:
  0.667  0.000  0.000
  0.000  0.667  0.000
  0.000  0.000  0.667
atom   16   Tr[ns(na)] =   4.00000
    eigenvalues: 
  0.667  0.667  0.667
    eigenvectors:
  1.000  0.000  0.000
  0.000  1.000  0.000
  0.000  0.000  1.000
    occupations:
  0.667  0.000  0.000
  0.000  0.667  0.000
  0.000  0.000  0.667
atom   17   Tr[ns(na)] =  10.00000
    eigenvalues: 
  1.000  1.000  1.000  1.000  1.000
    eigenvectors:
  1.000  0.000  0.000  0.000  0.000
  0.000  1.000  0.000  0.000  0.000
  0.000  0.000  1.000  0.000  0.000
  0.000  0.000  0.000  1.000  0.000
  0.000  0.000  0.000  0.000  1.000
    occupations:
  1.000  0.000  0.000  0.000  0.000
  0.000  1.000  0.000  0.000  0.000
  0.000  0.000  1.000  0.000  0.000
  0.000  0.000  0.000  1.000  0.000
  0.000  0.000  0.000  0.000  1.000
atom   18   Tr[ns(na)] =  10.00000
    eigenvalues: 
  1.000  1.000  1.000  1.000  1.000
    eigenvectors:
  1.000  0.000  0.000  0.000  0.000
  0.000  1.000  0.000  0.000  0.000
  0.000  0.000  1.000  0.000  0.000
  0.000  0.000  0.000  1.000  0.000
  0.000  0.000  0.000  0.000  1.000
    occupations:
  1.000  0.000  0.000  0.000  0.000
  0.000  1.000  0.000  0.000  0.000
  0.000  0.000  1.000  0.000  0.000
  0.000  0.000  0.000  1.000  0.000
  0.000  0.000  0.000  0.000  1.000
atom   19   Tr[ns(na)] =   4.00000
    eigenvalues: 
  0.667  0.667  0.667
    eigenvectors:
  1.000  0.000  0.000
  0.000  1.000  0.000
  0.000  0.000  1.000
    occupations:
  0.667  0.000  0.000
  0.000  0.667  0.000
  0.000  0.000  0.667
atom   20   Tr[ns(na)] =   4.00000
    eigenvalues: 
  0.667  0.667  0.667
    eigenvectors:
  1.000  0.000  0.000
  0.000  1.000  0.000
  0.000  0.000  1.000
    occupations:
  0.667  0.000  0.000
  0.000  0.667  0.000
  0.000  0.000  0.667
atom   21   Tr[ns(na)] =  10.00000
    eigenvalues: 
  1.000  1.000  1.000  1.000  1.000
    eigenvectors:
  1.000  0.000  0.000  0.000  0.000
  0.000  1.000  0.000  0.000  0.000
  0.000  0.000  1.000  0.000  0.000
  0.000  0.000  0.000  1.000  0.000
  0.000  0.000  0.000  0.000  1.000
    occupations:
  1.000  0.000  0.000  0.000  0.000
  0.000  1.000  0.000  0.000  0.000
  0.000  0.000  1.000  0.000  0.000
  0.000  0.000  0.000  1.000  0.000
  0.000  0.000  0.000  0.000  1.000
atom   22   Tr[ns(na)] =  10.00000
    eigenvalues: 
  1.000  1.000  1.000  1.000  1.000
    eigenvectors:
  1.000  0.000  0.000  0.000  0.000
  0.000  1.000  0.000  0.000  0.000
  0.000  0.000  1.000  0.000  0.000
  0.000  0.000  0.000  1.000  0.000
  0.000  0.000  0.000  0.000  1.000
    occupations:
  1.000  0.000  0.000  0.000  0.000
  0.000  1.000  0.000  0.000  0.000
  0.000  0.000  1.000  0.000  0.000
  0.000  0.000  0.000  1.000  0.000
  0.000  0.000  0.000  0.000  1.000
atom   23   Tr[ns(na)] =   4.00000
    eigenvalues: 
  0.667  0.667  0.667
    eigenvectors:
  1.000  0.000  0.000
  0.000  1.000  0.000
  0.000  0.000  1.000
    occupations:
  0.667  0.000  0.000
  0.000  0.667  0.000
  0.000  0.000  0.667
atom   24   Tr[ns(na)] =   4.00000
    eigenvalues: 
  0.667  0.667  0.667
    eigenvectors:
  1.000  0.000  0.000
  0.000  1.000  0.000
  0.000  0.000  1.000
    occupations:
  0.667  0.000  0.000
  0.000  0.667  0.000
  0.000  0.000  0.667
atom   25   Tr[ns(na)] =  10.00000
    eigenvalues: 
  1.000  1.000  1.000  1.000  1.000
    eigenvectors:
  1.000  0.000  0.000  0.000  0.000
  0.000  1.000  0.000  0.000  0.000
  0.000  0.000  1.000  0.000  0.000
  0.000  0.000  0.000  1.000  0.000
  0.000  0.000  0.000  0.000  1.000
    occupations:
  1.000  0.000  0.000  0.000  0.000
  0.000  1.000  0.000  0.000  0.000
  0.000  0.000  1.000  0.000  0.000
  0.000  0.000  0.000  1.000  0.000
  0.000  0.000  0.000  0.000  1.000
atom   26   Tr[ns(na)] =  10.00000
    eigenvalues: 
  1.000  1.000  1.000  1.000  1.000
    eigenvectors:
  1.000  0.000  0.000  0.000  0.000
  0.000  1.000  0.000  0.000  0.000
  0.000  0.000  1.000  0.000  0.000
  0.000  0.000  0.000  1.000  0.000
  0.000  0.000  0.000  0.000  1.000
    occupations:
  1.000  0.000  0.000  0.000  0.000
  0.000  1.000  0.000  0.000  0.000
  0.000  0.000  1.000  0.000  0.000
  0.000  0.000  0.000  1.000  0.000
  0.000  0.000  0.000  0.000  1.000
atom   27   Tr[ns(na)] =   4.00000
    eigenvalues: 
  0.667  0.667  0.667
    eigenvectors:
  1.000  0.000  0.000
  0.000  1.000  0.000
  0.000  0.000  1.000
    occupations:
  0.667  0.000  0.000
  0.000  0.667  0.000
  0.000  0.000  0.667
atom   28   Tr[ns(na)] =   4.00000
    eigenvalues: 
  0.667  0.667  0.667
    eigenvectors:
  1.000  0.000  0.000
  0.000  1.000  0.000
  0.000  0.000  1.000
    occupations:
  0.667  0.000  0.000
  0.000  0.667  0.000
  0.000  0.000  0.667
atom   29   Tr[ns(na)] =  10.00000
    eigenvalues: 
  1.000  1.000  1.000  1.000  1.000
    eigenvectors:
  1.000  0.000  0.000  0.000  0.000
  0.000  1.000  0.000  0.000  0.000
  0.000  0.000  1.000  0.000  0.000
  0.000  0.000  0.000  1.000  0.000
  0.000  0.000  0.000  0.000  1.000
    occupations:
  1.000  0.000  0.000  0.000  0.000
  0.000  1.000  0.000  0.000  0.000
  0.000  0.000  1.000  0.000  0.000
  0.000  0.000  0.000  1.000  0.000
  0.000  0.000  0.000  0.000  1.000
atom   30   Tr[ns(na)] =  10.00000
    eigenvalues: 
  1.000  1.000  1.000  1.000  1.000
    eigenvectors:
  1.000  0.000  0.000  0.000  0.000
  0.000  1.000  0.000  0.000  0.000
  0.000  0.000  1.000  0.000  0.000
  0.000  0.000  0.000  1.000  0.000
  0.000  0.000  0.000  0.000  1.000
    occupations:
  1.000  0.000  0.000  0.000  0.000
  0.000  1.000  0.000  0.000  0.000
  0.000  0.000  1.000  0.000  0.000
  0.000  0.000  0.000  1.000  0.000
  0.000  0.000  0.000  0.000  1.000
atom   31   Tr[ns(na)] =   4.00000
    eigenvalues: 
  0.667  0.667  0.667
    eigenvectors:
  1.000  0.000  0.000
  0.000  1.000  0.000
  0.000  0.000  1.000
    occupations:
  0.667  0.000  0.000
  0.000  0.667  0.000
  0.000  0.000  0.667
atom   32   Tr[ns(na)] =   4.00000
    eigenvalues: 
  0.667  0.667  0.667
    eigenvectors:
  1.000  0.000  0.000
  0.000  1.000  0.000
  0.000  0.000  1.000
    occupations:
  0.667  0.000  0.000
  0.000  0.667  0.000
  0.000  0.000  0.667
atom   33   Tr[ns(na)] =  10.00000
    eigenvalues: 
  1.000  1.000  1.000  1.000  1.000
    eigenvectors:
  1.000  0.000  0.000  0.000  0.000
  0.000  1.000  0.000  0.000  0.000
  0.000  0.000  1.000  0.000  0.000
  0.000  0.000  0.000  1.000  0.000
  0.000  0.000  0.000  0.000  1.000
    occupations:
  1.000  0.000  0.000  0.000  0.000
  0.000  1.000  0.000  0.000  0.000
  0.000  0.000  1.000  0.000  0.000
  0.000  0.000  0.000  1.000  0.000
  0.000  0.000  0.000  0.000  1.000
atom   34   Tr[ns(na)] =  10.00000
    eigenvalues: 
  1.000  1.000  1.000  1.000  1.000
    eigenvectors:
  1.000  0.000  0.000  0.000  0.000
  0.000  1.000  0.000  0.000  0.000
  0.000  0.000  1.000  0.000  0.000
  0.000  0.000  0.000  1.000  0.000
  0.000  0.000  0.000  0.000  1.000
    occupations:
  1.000  0.000  0.000  0.000  0.000
  0.000  1.000  0.000  0.000  0.000
  0.000  0.000  1.000  0.000  0.000
  0.000  0.000  0.000  1.000  0.000
  0.000  0.000  0.000  0.000  1.000
atom   35   Tr[ns(na)] =   4.00000
    eigenvalues: 
  0.667  0.667  0.667
    eigenvectors:
  1.000  0.000  0.000
  0.000  1.000  0.000
  0.000  0.000  1.000
    occupations:
  0.667  0.000  0.000
  0.000  0.667  0.000
  0.000  0.000  0.667
atom   36   Tr[ns(na)] =   4.00000
    eigenvalues: 
  0.667  0.667  0.667
    eigenvectors:
  1.000  0.000  0.000
  0.000  1.000  0.000
  0.000  0.000  1.000
    occupations:
  0.667  0.000  0.000
  0.000  0.667  0.000
  0.000  0.000  0.667
atom   37   Tr[ns(na)] =  10.00000
    eigenvalues: 
  1.000  1.000  1.000  1.000  1.000
    eigenvectors:
  1.000  0.000  0.000  0.000  0.000
  0.000  1.000  0.000  0.000  0.000
  0.000  0.000  1.000  0.000  0.000
  0.000  0.000  0.000  1.000  0.000
  0.000  0.000  0.000  0.000  1.000
    occupations:
  1.000  0.000  0.000  0.000  0.000
  0.000  1.000  0.000  0.000  0.000
  0.000  0.000  1.000  0.000  0.000
  0.000  0.000  0.000  1.000  0.000
  0.000  0.000  0.000  0.000  1.000
atom   38   Tr[ns(na)] =  10.00000
    eigenvalues: 
  1.000  1.000  1.000  1.000  1.000
    eigenvectors:
  1.000  0.000  0.000  0.000  0.000
  0.000  1.000  0.000  0.000  0.000
  0.000  0.000  1.000  0.000  0.000
  0.000  0.000  0.000  1.000  0.000
  0.000  0.000  0.000  0.000  1.000
    occupations:
  1.000  0.000  0.000  0.000  0.000
  0.000  1.000  0.000  0.000  0.000
  0.000  0.000  1.000  0.000  0.000
  0.000  0.000  0.000  1.000  0.000
  0.000  0.000  0.000  0.000  1.000
atom   39   Tr[ns(na)] =   4.00000
    eigenvalues: 
  0.667  0.667  0.667
    eigenvectors:
  1.000  0.000  0.000
  0.000  1.000  0.000
  0.000  0.000  1.000
    occupations:
  0.667  0.000  0.000
  0.000  0.667  0.000
  0.000  0.000  0.667
atom   40   Tr[ns(na)] =   4.00000
    eigenvalues: 
  0.667  0.667  0.667
    eigenvectors:
  1.000  0.000  0.000
  0.000  1.000  0.000
  0.000  0.000  1.000
    occupations:
  0.667  0.000  0.000
  0.000  0.667  0.000
  0.000  0.000  0.667
atom   41   Tr[ns(na)] =  10.00000
    eigenvalues: 
  1.000  1.000  1.000  1.000  1.000
    eigenvectors:
  1.000  0.000  0.000  0.000  0.000
  0.000  1.000  0.000  0.000  0.000
  0.000  0.000  1.000  0.000  0.000
  0.000  0.000  0.000  1.000  0.000
  0.000  0.000  0.000  0.000  1.000
    occupations:
  1.000  0.000  0.000  0.000  0.000
  0.000  1.000  0.000  0.000  0.000
  0.000  0.000  1.000  0.000  0.000
  0.000  0.000  0.000  1.000  0.000
  0.000  0.000  0.000  0.000  1.000
atom   42   Tr[ns(na)] =  10.00000
    eigenvalues: 
  1.000  1.000  1.000  1.000  1.000
    eigenvectors:
  1.000  0.000  0.000  0.000  0.000
  0.000  1.000  0.000  0.000  0.000
  0.000  0.000  1.000  0.000  0.000
  0.000  0.000  0.000  1.000  0.000
  0.000  0.000  0.000  0.000  1.000
    occupations:
  1.000  0.000  0.000  0.000  0.000
  0.000  1.000  0.000  0.000  0.000
  0.000  0.000  1.000  0.000  0.000
  0.000  0.000  0.000  1.000  0.000
  0.000  0.000  0.000  0.000  1.000
atom   43   Tr[ns(na)] =   4.00000
    eigenvalues: 
  0.667  0.667  0.667
    eigenvectors:
  1.000  0.000  0.000
  0.000  1.000  0.000
  0.000  0.000  1.000
    occupations:
  0.667  0.000  0.000
  0.000  0.667  0.000
  0.000  0.000  0.667
atom   44   Tr[ns(na)] =   4.00000
    eigenvalues: 
  0.667  0.667  0.667
    eigenvectors:
  1.000  0.000  0.000
  0.000  1.000  0.000
  0.000  0.000  1.000
    occupations:
  0.667  0.000  0.000
  0.000  0.667  0.000
  0.000  0.000  0.667
atom   45   Tr[ns(na)] =  10.00000
    eigenvalues: 
  1.000  1.000  1.000  1.000  1.000
    eigenvectors:
  1.000  0.000  0.000  0.000  0.000
  0.000  1.000  0.000  0.000  0.000
  0.000  0.000  1.000  0.000  0.000
  0.000  0.000  0.000  1.000  0.000
  0.000  0.000  0.000  0.000  1.000
    occupations:
  1.000  0.000  0.000  0.000  0.000
  0.000  1.000  0.000  0.000  0.000
  0.000  0.000  1.000  0.000  0.000
  0.000  0.000  0.000  1.000  0.000
  0.000  0.000  0.000  0.000  1.000
atom   46   Tr[ns(na)] =  10.00000
    eigenvalues: 
  1.000  1.000  1.000  1.000  1.000
    eigenvectors:
  1.000  0.000  0.000  0.000  0.000
  0.000  1.000  0.000  0.000  0.000
  0.000  0.000  1.000  0.000  0.000
  0.000  0.000  0.000  1.000  0.000
  0.000  0.000  0.000  0.000  1.000
    occupations:
  1.000  0.000  0.000  0.000  0.000
  0.000  1.000  0.000  0.000  0.000
  0.000  0.000  1.000  0.000  0.000
  0.000  0.000  0.000  1.000  0.000
  0.000  0.000  0.000  0.000  1.000
atom   47   Tr[ns(na)] =   4.00000
    eigenvalues: 
  0.667  0.667  0.667
    eigenvectors:
  1.000  0.000  0.000
  0.000  1.000  0.000
  0.000  0.000  1.000
    occupations:
  0.667  0.000  0.000
  0.000  0.667  0.000
  0.000  0.000  0.667
atom   48   Tr[ns(na)] =   4.00000
    eigenvalues: 
  0.667  0.667  0.667
    eigenvectors:
  1.000  0.000  0.000
  0.000  1.000  0.000
  0.000  0.000  1.000
    occupations:
  0.667  0.000  0.000
  0.000  0.667  0.000
  0.000  0.000  0.667
atom   49   Tr[ns(na)] =  10.00000
    eigenvalues: 
  1.000  1.000  1.000  1.000  1.000
    eigenvectors:
  1.000  0.000  0.000  0.000  0.000
  0.000  1.000  0.000  0.000  0.000
  0.000  0.000  1.000  0.000  0.000
  0.000  0.000  0.000  1.000  0.000
  0.000  0.000  0.000  0.000  1.000
    occupations:
  1.000  0.000  0.000  0.000  0.000
  0.000  1.000  0.000  0.000  0.000
  0.000  0.000  1.000  0.000  0.000
  0.000  0.000  0.000  1.000  0.000
  0.000  0.000  0.000  0.000  1.000
atom   50   Tr[ns(na)] =  10.00000
    eigenvalues: 
  1.000  1.000  1.000  1.000  1.000
    eigenvectors:
  1.000  0.000  0.000  0.000  0.000
  0.000  1.000  0.000  0.000  0.000
  0.000  0.000  1.000  0.000  0.000
  0.000  0.000  0.000  1.000  0.000
  0.000  0.000  0.000  0.000  1.000
    occupations:
  1.000  0.000  0.000  0.000  0.000
  0.000  1.000  0.000  0.000  0.000
  0.000  0.000  1.000  0.000  0.000
  0.000  0.000  0.000  1.000  0.000
  0.000  0.000  0.000  0.000  1.000
atom   51   Tr[ns(na)] =   4.00000
    eigenvalues: 
  0.667  0.667  0.667
    eigenvectors:
  1.000  0.000  0.000
  0.000  1.000  0.000
  0.000  0.000  1.000
    occupations:
  0.667  0.000  0.000
  0.000  0.667  0.000
  0.000  0.000  0.667
atom   52   Tr[ns(na)] =   4.00000
    eigenvalues: 
  0.667  0.667  0.667
    eigenvectors:
  1.000  0.000  0.000
  0.000  1.000  0.000
  0.000  0.000  1.000
    occupations:
  0.667  0.000  0.000
  0.000  0.667  0.000
  0.000  0.000  0.667
atom   54   Tr[ns(na)] =  10.00000
    eigenvalues: 
  1.000  1.000  1.000  1.000  1.000
    eigenvectors:
  1.000  0.000  0.000  0.000  0.000
  0.000  1.000  0.000  0.000  0.000
  0.000  0.000  1.000  0.000  0.000
  0.000  0.000  0.000  1.000  0.000
  0.000  0.000  0.000  0.000  1.000
    occupations:
  1.000  0.000  0.000  0.000  0.000
  0.000  1.000  0.000  0.000  0.000
  0.000  0.000  1.000  0.000  0.000
  0.000  0.000  0.000  1.000  0.000
  0.000  0.000  0.000  0.000  1.000
atom   55   Tr[ns(na)] =   4.00000
    eigenvalues: 
  0.667  0.667  0.667
    eigenvectors:
  1.000  0.000  0.000
  0.000  1.000  0.000
  0.000  0.000  1.000
    occupations:
  0.667  0.000  0.000
  0.000  0.667  0.000
  0.000  0.000  0.667
atom   56   Tr[ns(na)] =   4.00000
    eigenvalues: 
  0.667  0.667  0.667
    eigenvectors:
  1.000  0.000  0.000
  0.000  1.000  0.000
  0.000  0.000  1.000
    occupations:
  0.667  0.000  0.000
  0.000  0.667  0.000
  0.000  0.000  0.667
atom   57   Tr[ns(na)] =  10.00000
    eigenvalues: 
  1.000  1.000  1.000  1.000  1.000
    eigenvectors:
  1.000  0.000  0.000  0.000  0.000
  0.000  1.000  0.000  0.000  0.000
  0.000  0.000  1.000  0.000  0.000
  0.000  0.000  0.000  1.000  0.000
  0.000  0.000  0.000  0.000  1.000
    occupations:
  1.000  0.000  0.000  0.000  0.000
  0.000  1.000  0.000  0.000  0.000
  0.000  0.000  1.000  0.000  0.000
  0.000  0.000  0.000  1.000  0.000
  0.000  0.000  0.000  0.000  1.000
atom   58   Tr[ns(na)] =  10.00000
    eigenvalues: 
  1.000  1.000  1.000  1.000  1.000
    eigenvectors:
  1.000  0.000  0.000  0.000  0.000
  0.000  1.000  0.000  0.000  0.000
  0.000  0.000  1.000  0.000  0.000
  0.000  0.000  0.000  1.000  0.000
  0.000  0.000  0.000  0.000  1.000
    occupations:
  1.000  0.000  0.000  0.000  0.000
  0.000  1.000  0.000  0.000  0.000
  0.000  0.000  1.000  0.000  0.000
  0.000  0.000  0.000  1.000  0.000
  0.000  0.000  0.000  0.000  1.000
atom   59   Tr[ns(na)] =   4.00000
    eigenvalues: 
  0.667  0.667  0.667
    eigenvectors:
  1.000  0.000  0.000
  0.000  1.000  0.000
  0.000  0.000  1.000
    occupations:
  0.667  0.000  0.000
  0.000  0.667  0.000
  0.000  0.000  0.667
atom   60   Tr[ns(na)] =   4.00000
    eigenvalues: 
  0.667  0.667  0.667
    eigenvectors:
  1.000  0.000  0.000
  0.000  1.000  0.000
  0.000  0.000  1.000
    occupations:
  0.667  0.000  0.000
  0.000  0.667  0.000
  0.000  0.000  0.667
atom   61   Tr[ns(na)] =  10.00000
    eigenvalues: 
  1.000  1.000  1.000  1.000  1.000
    eigenvectors:
  1.000  0.000  0.000  0.000  0.000
  0.000  1.000  0.000  0.000  0.000
  0.000  0.000  1.000  0.000  0.000
  0.000  0.000  0.000  1.000  0.000
  0.000  0.000  0.000  0.000  1.000
    occupations:
  1.000  0.000  0.000  0.000  0.000
  0.000  1.000  0.000  0.000  0.000
  0.000  0.000  1.000  0.000  0.000
  0.000  0.000  0.000  1.000  0.000
  0.000  0.000  0.000  0.000  1.000
atom   62   Tr[ns(na)] =  10.00000
    eigenvalues: 
  1.000  1.000  1.000  1.000  1.000
    eigenvectors:
  1.000  0.000  0.000  0.000  0.000
  0.000  1.000  0.000  0.000  0.000
  0.000  0.000  1.000  0.000  0.000
  0.000  0.000  0.000  1.000  0.000
  0.000  0.000  0.000  0.000  1.000
    occupations:
  1.000  0.000  0.000  0.000  0.000
  0.000  1.000  0.000  0.000  0.000
  0.000  0.000  1.000  0.000  0.000
  0.000  0.000  0.000  1.000  0.000
  0.000  0.000  0.000  0.000  1.000
atom   63   Tr[ns(na)] =   4.00000
    eigenvalues: 
  0.667  0.667  0.667
    eigenvectors:
  1.000  0.000  0.000
  0.000  1.000  0.000
  0.000  0.000  1.000
    occupations:
  0.667  0.000  0.000
  0.000  0.667  0.000
  0.000  0.000  0.667
atom   64   Tr[ns(na)] =   4.00000
    eigenvalues: 
  0.667  0.667  0.667
    eigenvectors:
  1.000  0.000  0.000
  0.000  1.000  0.000
  0.000  0.000  1.000
    occupations:
  0.667  0.000  0.000
  0.000  0.667  0.000
  0.000  0.000  0.667
atom   66   Tr[ns(na)] =  10.00000
    eigenvalues: 
  1.000  1.000  1.000  1.000  1.000
    eigenvectors:
  1.000  0.000  0.000  0.000  0.000
  0.000  1.000  0.000  0.000  0.000
  0.000  0.000  1.000  0.000  0.000
  0.000  0.000  0.000  1.000  0.000
  0.000  0.000  0.000  0.000  1.000
    occupations:
  1.000  0.000  0.000  0.000  0.000
  0.000  1.000  0.000  0.000  0.000
  0.000  0.000  1.000  0.000  0.000
  0.000  0.000  0.000  1.000  0.000
  0.000  0.000  0.000  0.000  1.000
atom   67   Tr[ns(na)] =   4.00000
    eigenvalues: 
  0.667  0.667  0.667
    eigenvectors:
  1.000  0.000  0.000
  0.000  1.000  0.000
  0.000  0.000  1.000
    occupations:
  0.667  0.000  0.000
  0.000  0.667  0.000
  0.000  0.000  0.667
atom   68   Tr[ns(na)] =   4.00000
    eigenvalues: 
  0.667  0.667  0.667
    eigenvectors:
  1.000  0.000  0.000
  0.000  1.000  0.000
  0.000  0.000  1.000
    occupations:
  0.667  0.000  0.000
  0.000  0.667  0.000
  0.000  0.000  0.667
atom   69   Tr[ns(na)] =  10.00000
    eigenvalues: 
  1.000  1.000  1.000  1.000  1.000
    eigenvectors:
  1.000  0.000  0.000  0.000  0.000
  0.000  1.000  0.000  0.000  0.000
  0.000  0.000  1.000  0.000  0.000
  0.000  0.000  0.000  1.000  0.000
  0.000  0.000  0.000  0.000  1.000
    occupations:
  1.000  0.000  0.000  0.000  0.000
  0.000  1.000  0.000  0.000  0.000
  0.000  0.000  1.000  0.000  0.000
  0.000  0.000  0.000  1.000  0.000
  0.000  0.000  0.000  0.000  1.000
atom   70   Tr[ns(na)] =  10.00000
    eigenvalues: 
  1.000  1.000  1.000  1.000  1.000
    eigenvectors:
  1.000  0.000  0.000  0.000  0.000
  0.000  1.000  0.000  0.000  0.000
  0.000  0.000  1.000  0.000  0.000
  0.000  0.000  0.000  1.000  0.000
  0.000  0.000  0.000  0.000  1.000
    occupations:
  1.000  0.000  0.000  0.000  0.000
  0.000  1.000  0.000  0.000  0.000
  0.000  0.000  1.000  0.000  0.000
  0.000  0.000  0.000  1.000  0.000
  0.000  0.000  0.000  0.000  1.000
atom   71   Tr[ns(na)] =   4.00000
    eigenvalues: 
  0.667  0.667  0.667
    eigenvectors:
  1.000  0.000  0.000
  0.000  1.000  0.000
  0.000  0.000  1.000
    occupations:
  0.667  0.000  0.000
  0.000  0.667  0.000
  0.000  0.000  0.667
atom   72   Tr[ns(na)] =   4.00000
    eigenvalues: 
  0.667  0.667  0.667
    eigenvectors:
  1.000  0.000  0.000
  0.000  1.000  0.000
  0.000  0.000  1.000
    occupations:
  0.667  0.000  0.000
  0.000  0.667  0.000
  0.000  0.000  0.667
atom   73   Tr[ns(na)] =  10.00000
    eigenvalues: 
  1.000  1.000  1.000  1.000  1.000
    eigenvectors:
  1.000  0.000  0.000  0.000  0.000
  0.000  1.000  0.000  0.000  0.000
  0.000  0.000  1.000  0.000  0.000
  0.000  0.000  0.000  1.000  0.000
  0.000  0.000  0.000  0.000  1.000
    occupations:
  1.000  0.000  0.000  0.000  0.000
  0.000  1.000  0.000  0.000  0.000
  0.000  0.000  1.000  0.000  0.000
  0.000  0.000  0.000  1.000  0.000
  0.000  0.000  0.000  0.000  1.000
atom   74   Tr[ns(na)] =  10.00000
    eigenvalues: 
  1.000  1.000  1.000  1.000  1.000
    eigenvectors:
  1.000  0.000  0.000  0.000  0.000
  0.000  1.000  0.000  0.000  0.000
  0.000  0.000  1.000  0.000  0.000
  0.000  0.000  0.000  1.000  0.000
  0.000  0.000  0.000  0.000  1.000
    occupations:
  1.000  0.000  0.000  0.000  0.000
  0.000  1.000  0.000  0.000  0.000
  0.000  0.000  1.000  0.000  0.000
  0.000  0.000  0.000  1.000  0.000
  0.000  0.000  0.000  0.000  1.000
atom   75   Tr[ns(na)] =   4.00000
    eigenvalues: 
  0.667  0.667  0.667
    eigenvectors:
  1.000  0.000  0.000
  0.000  1.000  0.000
  0.000  0.000  1.000
    occupations:
  0.667  0.000  0.000
  0.000  0.667  0.000
  0.000  0.000  0.667
atom   76   Tr[ns(na)] =   4.00000
    eigenvalues: 
  0.667  0.667  0.667
    eigenvectors:
  1.000  0.000  0.000
  0.000  1.000  0.000
  0.000  0.000  1.000
    occupations:
  0.667  0.000  0.000
  0.000  0.667  0.000
  0.000  0.000  0.667
atom   77   Tr[ns(na)] =  10.00000
    eigenvalues: 
  1.000  1.000  1.000  1.000  1.000
    eigenvectors:
  1.000  0.000  0.000  0.000  0.000
  0.000  1.000  0.000  0.000  0.000
  0.000  0.000  1.000  0.000  0.000
  0.000  0.000  0.000  1.000  0.000
  0.000  0.000  0.000  0.000  1.000
    occupations:
  1.000  0.000  0.000  0.000  0.000
  0.000  1.000  0.000  0.000  0.000
  0.000  0.000  1.000  0.000  0.000
  0.000  0.000  0.000  1.000  0.000
  0.000  0.000  0.000  0.000  1.000
atom   78   Tr[ns(na)] =  10.00000
    eigenvalues: 
  1.000  1.000  1.000  1.000  1.000
    eigenvectors:
  1.000  0.000  0.000  0.000  0.000
  0.000  1.000  0.000  0.000  0.000
  0.000  0.000  1.000  0.000  0.000
  0.000  0.000  0.000  1.000  0.000
  0.000  0.000  0.000  0.000  1.000
    occupations:
  1.000  0.000  0.000  0.000  0.000
  0.000  1.000  0.000  0.000  0.000
  0.000  0.000  1.000  0.000  0.000
  0.000  0.000  0.000  1.000  0.000
  0.000  0.000  0.000  0.000  1.000
atom   79   Tr[ns(na)] =   4.00000
    eigenvalues: 
  0.667  0.667  0.667
    eigenvectors:
  1.000  0.000  0.000
  0.000  1.000  0.000
  0.000  0.000  1.000
    occupations:
  0.667  0.000  0.000
  0.000  0.667  0.000
  0.000  0.000  0.667
atom   80   Tr[ns(na)] =   4.00000
    eigenvalues: 
  0.667  0.667  0.667
    eigenvectors:
  1.000  0.000  0.000
  0.000  1.000  0.000
  0.000  0.000  1.000
    occupations:
  0.667  0.000  0.000
  0.000  0.667  0.000
  0.000  0.000  0.667
atom   81   Tr[ns(na)] =  10.00000
    eigenvalues: 
  1.000  1.000  1.000  1.000  1.000
    eigenvectors:
  1.000  0.000  0.000  0.000  0.000
  0.000  1.000  0.000  0.000  0.000
  0.000  0.000  1.000  0.000  0.000
  0.000  0.000  0.000  1.000  0.000
  0.000  0.000  0.000  0.000  1.000
    occupations:
  1.000  0.000  0.000  0.000  0.000
  0.000  1.000  0.000  0.000  0.000
  0.000  0.000  1.000  0.000  0.000
  0.000  0.000  0.000  1.000  0.000
  0.000  0.000  0.000  0.000  1.000
atom   82   Tr[ns(na)] =  10.00000
    eigenvalues: 
  1.000  1.000  1.000  1.000  1.000
    eigenvectors:
  1.000  0.000  0.000  0.000  0.000
  0.000  1.000  0.000  0.000  0.000
  0.000  0.000  1.000  0.000  0.000
  0.000  0.000  0.000  1.000  0.000
  0.000  0.000  0.000  0.000  1.000
    occupations:
  1.000  0.000  0.000  0.000  0.000
  0.000  1.000  0.000  0.000  0.000
  0.000  0.000  1.000  0.000  0.000
  0.000  0.000  0.000  1.000  0.000
  0.000  0.000  0.000  0.000  1.000
atom   83   Tr[ns(na)] =   4.00000
    eigenvalues: 
  0.667  0.667  0.667
    eigenvectors:
  1.000  0.000  0.000
  0.000  1.000  0.000
  0.000  0.000  1.000
    occupations:
  0.667  0.000  0.000
  0.000  0.667  0.000
  0.000  0.000  0.667
atom   84   Tr[ns(na)] =   4.00000
    eigenvalues: 
  0.667  0.667  0.667
    eigenvectors:
  1.000  0.000  0.000
  0.000  1.000  0.000
  0.000  0.000  1.000
    occupations:
  0.667  0.000  0.000
  0.000  0.667  0.000
  0.000  0.000  0.667
atom   85   Tr[ns(na)] =  10.00000
    eigenvalues: 
  1.000  1.000  1.000  1.000  1.000
    eigenvectors:
  1.000  0.000  0.000  0.000  0.000
  0.000  1.000  0.000  0.000  0.000
  0.000  0.000  1.000  0.000  0.000
  0.000  0.000  0.000  1.000  0.000
  0.000  0.000  0.000  0.000  1.000
    occupations:
  1.000  0.000  0.000  0.000  0.000
  0.000  1.000  0.000  0.000  0.000
  0.000  0.000  1.000  0.000  0.000
  0.000  0.000  0.000  1.000  0.000
  0.000  0.000  0.000  0.000  1.000
atom   86   Tr[ns(na)] =  10.00000
    eigenvalues: 
  1.000  1.000  1.000  1.000  1.000
    eigenvectors:
  1.000  0.000  0.000  0.000  0.000
  0.000  1.000  0.000  0.000  0.000
  0.000  0.000  1.000  0.000  0.000
  0.000  0.000  0.000  1.000  0.000
  0.000  0.000  0.000  0.000  1.000
    occupations:
  1.000  0.000  0.000  0.000  0.000
  0.000  1.000  0.000  0.000  0.000
  0.000  0.000  1.000  0.000  0.000
  0.000  0.000  0.000  1.000  0.000
  0.000  0.000  0.000  0.000  1.000
atom   87   Tr[ns(na)] =   4.00000
    eigenvalues: 
  0.667  0.667  0.667
    eigenvectors:
  1.000  0.000  0.000
  0.000  1.000  0.000
  0.000  0.000  1.000
    occupations:
  0.667  0.000  0.000
  0.000  0.667  0.000
  0.000  0.000  0.667
atom   88   Tr[ns(na)] =   4.00000
    eigenvalues: 
  0.667  0.667  0.667
    eigenvectors:
  1.000  0.000  0.000
  0.000  1.000  0.000
  0.000  0.000  1.000
    occupations:
  0.667  0.000  0.000
  0.000  0.667  0.000
  0.000  0.000  0.667
atom   89   Tr[ns(na)] =  10.00000
    eigenvalues: 
  1.000  1.000  1.000  1.000  1.000
    eigenvectors:
  1.000  0.000  0.000  0.000  0.000
  0.000  1.000  0.000  0.000  0.000
  0.000  0.000  1.000  0.000  0.000
  0.000  0.000  0.000  1.000  0.000
  0.000  0.000  0.000  0.000  1.000
    occupations:
  1.000  0.000  0.000  0.000  0.000
  0.000  1.000  0.000  0.000  0.000
  0.000  0.000  1.000  0.000  0.000
  0.000  0.000  0.000  1.000  0.000
  0.000  0.000  0.000  0.000  1.000
atom   90   Tr[ns(na)] =  10.00000
    eigenvalues: 
  1.000  1.000  1.000  1.000  1.000
    eigenvectors:
  1.000  0.000  0.000  0.000  0.000
  0.000  1.000  0.000  0.000  0.000
  0.000  0.000  1.000  0.000  0.000
  0.000  0.000  0.000  1.000  0.000
  0.000  0.000  0.000  0.000  1.000
    occupations:
  1.000  0.000  0.000  0.000  0.000
  0.000  1.000  0.000  0.000  0.000
  0.000  0.000  1.000  0.000  0.000
  0.000  0.000  0.000  1.000  0.000
  0.000  0.000  0.000  0.000  1.000
atom   91   Tr[ns(na)] =   4.00000
    eigenvalues: 
  0.667  0.667  0.667
    eigenvectors:
  1.000  0.000  0.000
  0.000  1.000  0.000
  0.000  0.000  1.000
    occupations:
  0.667  0.000  0.000
  0.000  0.667  0.000
  0.000  0.000  0.667
atom   92   Tr[ns(na)] =   4.00000
    eigenvalues: 
  0.667  0.667  0.667
    eigenvectors:
  1.000  0.000  0.000
  0.000  1.000  0.000
  0.000  0.000  1.000
    occupations:
  0.667  0.000  0.000
  0.000  0.667  0.000
  0.000  0.000  0.667
atom   93   Tr[ns(na)] =  10.00000
    eigenvalues: 
  1.000  1.000  1.000  1.000  1.000
    eigenvectors:
  1.000  0.000  0.000  0.000  0.000
  0.000  1.000  0.000  0.000  0.000
  0.000  0.000  1.000  0.000  0.000
  0.000  0.000  0.000  1.000  0.000
  0.000  0.000  0.000  0.000  1.000
    occupations:
  1.000  0.000  0.000  0.000  0.000
  0.000  1.000  0.000  0.000  0.000
  0.000  0.000  1.000  0.000  0.000
  0.000  0.000  0.000  1.000  0.000
  0.000  0.000  0.000  0.000  1.000
atom   94   Tr[ns(na)] =  10.00000
    eigenvalues: 
  1.000  1.000  1.000  1.000  1.000
    eigenvectors:
  1.000  0.000  0.000  0.000  0.000
  0.000  1.000  0.000  0.000  0.000
  0.000  0.000  1.000  0.000  0.000
  0.000  0.000  0.000  1.000  0.000
  0.000  0.000  0.000  0.000  1.000
    occupations:
  1.000  0.000  0.000  0.000  0.000
  0.000  1.000  0.000  0.000  0.000
  0.000  0.000  1.000  0.000  0.000
  0.000  0.000  0.000  1.000  0.000
  0.000  0.000  0.000  0.000  1.000
atom   95   Tr[ns(na)] =   4.00000
    eigenvalues: 
  0.667  0.667  0.667
    eigenvectors:
  1.000  0.000  0.000
  0.000  1.000  0.000
  0.000  0.000  1.000
    occupations:
  0.667  0.000  0.000
  0.000  0.667  0.000
  0.000  0.000  0.667
atom   96   Tr[ns(na)] =   4.00000
    eigenvalues: 
  0.667  0.667  0.667
    eigenvectors:
  1.000  0.000  0.000
  0.000  1.000  0.000
  0.000  0.000  1.000
    occupations:
  0.667  0.000  0.000
  0.000  0.667  0.000
  0.000  0.000  0.667
atom   97   Tr[ns(na)] =  10.00000
    eigenvalues: 
  1.000  1.000  1.000  1.000  1.000
    eigenvectors:
  1.000  0.000  0.000  0.000  0.000
  0.000  1.000  0.000  0.000  0.000
  0.000  0.000  1.000  0.000  0.000
  0.000  0.000  0.000  1.000  0.000
  0.000  0.000  0.000  0.000  1.000
    occupations:
  1.000  0.000  0.000  0.000  0.000
  0.000  1.000  0.000  0.000  0.000
  0.000  0.000  1.000  0.000  0.000
  0.000  0.000  0.000  1.000  0.000
  0.000  0.000  0.000  0.000  1.000
atom   98   Tr[ns(na)] =  10.00000
    eigenvalues: 
  1.000  1.000  1.000  1.000  1.000
    eigenvectors:
  1.000  0.000  0.000  0.000  0.000
  0.000  1.000  0.000  0.000  0.000
  0.000  0.000  1.000  0.000  0.000
  0.000  0.000  0.000  1.000  0.000
  0.000  0.000  0.000  0.000  1.000
    occupations:
  1.000  0.000  0.000  0.000  0.000
  0.000  1.000  0.000  0.000  0.000
  0.000  0.000  1.000  0.000  0.000
  0.000  0.000  0.000  1.000  0.000
  0.000  0.000  0.000  0.000  1.000
atom   99   Tr[ns(na)] =   4.00000
    eigenvalues: 
  0.667  0.667  0.667
    eigenvectors:
  1.000  0.000  0.000
  0.000  1.000  0.000
  0.000  0.000  1.000
    occupations:
  0.667  0.000  0.000
  0.000  0.667  0.000
  0.000  0.000  0.667
atom  100   Tr[ns(na)] =   4.00000
    eigenvalues: 
  0.667  0.667  0.667
    eigenvectors:
  1.000  0.000  0.000
  0.000  1.000  0.000
  0.000  0.000  1.000
    occupations:
  0.667  0.000  0.000
  0.000  0.667  0.000
  0.000  0.000  0.667
atom  101   Tr[ns(na)] =  10.00000
    eigenvalues: 
  1.000  1.000  1.000  1.000  1.000
    eigenvectors:
  1.000  0.000  0.000  0.000  0.000
  0.000  1.000  0.000  0.000  0.000
  0.000  0.000  1.000  0.000  0.000
  0.000  0.000  0.000  1.000  0.000
  0.000  0.000  0.000  0.000  1.000
    occupations:
  1.000  0.000  0.000  0.000  0.000
  0.000  1.000  0.000  0.000  0.000
  0.000  0.000  1.000  0.000  0.000
  0.000  0.000  0.000  1.000  0.000
  0.000  0.000  0.000  0.000  1.000
atom  103   Tr[ns(na)] =   4.00000
    eigenvalues: 
  0.667  0.667  0.667
    eigenvectors:
  1.000  0.000  0.000
  0.000  1.000  0.000
  0.000  0.000  1.000
    occupations:
  0.667  0.000  0.000
  0.000  0.667  0.000
  0.000  0.000  0.667
atom  104   Tr[ns(na)] =   4.00000
    eigenvalues: 
  0.667  0.667  0.667
    eigenvectors:
  1.000  0.000  0.000
  0.000  1.000  0.000
  0.000  0.000  1.000
    occupations:
  0.667  0.000  0.000
  0.000  0.667  0.000
  0.000  0.000  0.667
atom  105   Tr[ns(na)] =  10.00000
    eigenvalues: 
  1.000  1.000  1.000  1.000  1.000
    eigenvectors:
  1.000  0.000  0.000  0.000  0.000
  0.000  1.000  0.000  0.000  0.000
  0.000  0.000  1.000  0.000  0.000
  0.000  0.000  0.000  1.000  0.000
  0.000  0.000  0.000  0.000  1.000
    occupations:
  1.000  0.000  0.000  0.000  0.000
  0.000  1.000  0.000  0.000  0.000
  0.000  0.000  1.000  0.000  0.000
  0.000  0.000  0.000  1.000  0.000
  0.000  0.000  0.000  0.000  1.000
atom  106   Tr[ns(na)] =  10.00000
    eigenvalues: 
  1.000  1.000  1.000  1.000  1.000
    eigenvectors:
  1.000  0.000  0.000  0.000  0.000
  0.000  1.000  0.000  0.000  0.000
  0.000  0.000  1.000  0.000  0.000
  0.000  0.000  0.000  1.000  0.000
  0.000  0.000  0.000  0.000  1.000
    occupations:
  1.000  0.000  0.000  0.000  0.000
  0.000  1.000  0.000  0.000  0.000
  0.000  0.000  1.000  0.000  0.000
  0.000  0.000  0.000  1.000  0.000
  0.000  0.000  0.000  0.000  1.000
atom  107   Tr[ns(na)] =   4.00000
    eigenvalues: 
  0.667  0.667  0.667
    eigenvectors:
  1.000  0.000  0.000
  0.000  1.000  0.000
  0.000  0.000  1.000
    occupations:
  0.667  0.000  0.000
  0.000  0.667  0.000
  0.000  0.000  0.667
atom  108   Tr[ns(na)] =   4.00000
    eigenvalues: 
  0.667  0.667  0.667
    eigenvectors:
  1.000  0.000  0.000
  0.000  1.000  0.000
  0.000  0.000  1.000
    occupations:
  0.667  0.000  0.000
  0.000  0.667  0.000
  0.000  0.000  0.667
atom  109   Tr[ns(na)] =  10.00000
    eigenvalues: 
  1.000  1.000  1.000  1.000  1.000
    eigenvectors:
  1.000  0.000  0.000  0.000  0.000
  0.000  1.000  0.000  0.000  0.000
  0.000  0.000  1.000  0.000  0.000
  0.000  0.000  0.000  1.000  0.000
  0.000  0.000  0.000  0.000  1.000
    occupations:
  1.000  0.000  0.000  0.000  0.000
  0.000  1.000  0.000  0.000  0.000
  0.000  0.000  1.000  0.000  0.000
  0.000  0.000  0.000  1.000  0.000
  0.000  0.000  0.000  0.000  1.000
atom  110   Tr[ns(na)] =  10.00000
    eigenvalues: 
  1.000  1.000  1.000  1.000  1.000
    eigenvectors:
  1.000  0.000  0.000  0.000  0.000
  0.000  1.000  0.000  0.000  0.000
  0.000  0.000  1.000  0.000  0.000
  0.000  0.000  0.000  1.000  0.000
  0.000  0.000  0.000  0.000  1.000
    occupations:
  1.000  0.000  0.000  0.000  0.000
  0.000  1.000  0.000  0.000  0.000
  0.000  0.000  1.000  0.000  0.000
  0.000  0.000  0.000  1.000  0.000
  0.000  0.000  0.000  0.000  1.000
atom  111   Tr[ns(na)] =   4.00000
    eigenvalues: 
  0.667  0.667  0.667
    eigenvectors:
  1.000  0.000  0.000
  0.000  1.000  0.000
  0.000  0.000  1.000
    occupations:
  0.667  0.000  0.000
  0.000  0.667  0.000
  0.000  0.000  0.667
atom  112   Tr[ns(na)] =   4.00000
    eigenvalues: 
  0.667  0.667  0.667
    eigenvectors:
  1.000  0.000  0.000
  0.000  1.000  0.000
  0.000  0.000  1.000
    occupations:
  0.667  0.000  0.000
  0.000  0.667  0.000
  0.000  0.000  0.667
atom  113   Tr[ns(na)] =  10.00000
    eigenvalues: 
  1.000  1.000  1.000  1.000  1.000
    eigenvectors:
  1.000  0.000  0.000  0.000  0.000
  0.000  1.000  0.000  0.000  0.000
  0.000  0.000  1.000  0.000  0.000
  0.000  0.000  0.000  1.000  0.000
  0.000  0.000  0.000  0.000  1.000
    occupations:
  1.000  0.000  0.000  0.000  0.000
  0.000  1.000  0.000  0.000  0.000
  0.000  0.000  1.000  0.000  0.000
  0.000  0.000  0.000  1.000  0.000
  0.000  0.000  0.000  0.000  1.000
atom  114   Tr[ns(na)] =  10.00000
    eigenvalues: 
  1.000  1.000  1.000  1.000  1.000
    eigenvectors:
  1.000  0.000  0.000  0.000  0.000
  0.000  1.000  0.000  0.000  0.000
  0.000  0.000  1.000  0.000  0.000
  0.000  0.000  0.000  1.000  0.000
  0.000  0.000  0.000  0.000  1.000
    occupations:
  1.000  0.000  0.000  0.000  0.000
  0.000  1.000  0.000  0.000  0.000
  0.000  0.000  1.000  0.000  0.000
  0.000  0.000  0.000  1.000  0.000
  0.000  0.000  0.000  0.000  1.000
atom  115   Tr[ns(na)] =   4.00000
    eigenvalues: 
  0.667  0.667  0.667
    eigenvectors:
  1.000  0.000  0.000
  0.000  1.000  0.000
  0.000  0.000  1.000
    occupations:
  0.667  0.000  0.000
  0.000  0.667  0.000
  0.000  0.000  0.667
atom  116   Tr[ns(na)] =   4.00000
    eigenvalues: 
  0.667  0.667  0.667
    eigenvectors:
  1.000  0.000  0.000
  0.000  1.000  0.000
  0.000  0.000  1.000
    occupations:
  0.667  0.000  0.000
  0.000  0.667  0.000
  0.000  0.000  0.667
atom  117   Tr[ns(na)] =  10.00000
    eigenvalues: 
  1.000  1.000  1.000  1.000  1.000
    eigenvectors:
  1.000  0.000  0.000  0.000  0.000
  0.000  1.000  0.000  0.000  0.000
  0.000  0.000  1.000  0.000  0.000
  0.000  0.000  0.000  1.000  0.000
  0.000  0.000  0.000  0.000  1.000
    occupations:
  1.000  0.000  0.000  0.000  0.000
  0.000  1.000  0.000  0.000  0.000
  0.000  0.000  1.000  0.000  0.000
  0.000  0.000  0.000  1.000  0.000
  0.000  0.000  0.000  0.000  1.000
atom  118   Tr[ns(na)] =  10.00000
    eigenvalues: 
  1.000  1.000  1.000  1.000  1.000
    eigenvectors:
  1.000  0.000  0.000  0.000  0.000
  0.000  1.000  0.000  0.000  0.000
  0.000  0.000  1.000  0.000  0.000
  0.000  0.000  0.000  1.000  0.000
  0.000  0.000  0.000  0.000  1.000
    occupations:
  1.000  0.000  0.000  0.000  0.000
  0.000  1.000  0.000  0.000  0.000
  0.000  0.000  1.000  0.000  0.000
  0.000  0.000  0.000  1.000  0.000
  0.000  0.000  0.000  0.000  1.000
atom  119   Tr[ns(na)] =   4.00000
    eigenvalues: 
  0.667  0.667  0.667
    eigenvectors:
  1.000  0.000  0.000
  0.000  1.000  0.000
  0.000  0.000  1.000
    occupations:
  0.667  0.000  0.000
  0.000  0.667  0.000
  0.000  0.000  0.667
atom  120   Tr[ns(na)] =   4.00000
    eigenvalues: 
  0.667  0.667  0.667
    eigenvectors:
  1.000  0.000  0.000
  0.000  1.000  0.000
  0.000  0.000  1.000
    occupations:
  0.667  0.000  0.000
  0.000  0.667  0.000
  0.000  0.000  0.667
atom  121   Tr[ns(na)] =  10.00000
    eigenvalues: 
  1.000  1.000  1.000  1.000  1.000
    eigenvectors:
  1.000  0.000  0.000  0.000  0.000
  0.000  1.000  0.000  0.000  0.000
  0.000  0.000  1.000  0.000  0.000
  0.000  0.000  0.000  1.000  0.000
  0.000  0.000  0.000  0.000  1.000
    occupations:
  1.000  0.000  0.000  0.000  0.000
  0.000  1.000  0.000  0.000  0.000
  0.000  0.000  1.000  0.000  0.000
  0.000  0.000  0.000  1.000  0.000
  0.000  0.000  0.000  0.000  1.000
atom  122   Tr[ns(na)] =  10.00000
    eigenvalues: 
  1.000  1.000  1.000  1.000  1.000
    eigenvectors:
  1.000  0.000  0.000  0.000  0.000
  0.000  1.000  0.000  0.000  0.000
  0.000  0.000  1.000  0.000  0.000
  0.000  0.000  0.000  1.000  0.000
  0.000  0.000  0.000  0.000  1.000
    occupations:
  1.000  0.000  0.000  0.000  0.000
  0.000  1.000  0.000  0.000  0.000
  0.000  0.000  1.000  0.000  0.000
  0.000  0.000  0.000  1.000  0.000
  0.000  0.000  0.000  0.000  1.000
atom  123   Tr[ns(na)] =   4.00000
    eigenvalues: 
  0.667  0.667  0.667
    eigenvectors:
  1.000  0.000  0.000
  0.000  1.000  0.000
  0.000  0.000  1.000
    occupations:
  0.667  0.000  0.000
  0.000  0.667  0.000
  0.000  0.000  0.667
atom  124   Tr[ns(na)] =   4.00000
    eigenvalues: 
  0.667  0.667  0.667
    eigenvectors:
  1.000  0.000  0.000
  0.000  1.000  0.000
  0.000  0.000  1.000
    occupations:
  0.667  0.000  0.000
  0.000  0.667  0.000
  0.000  0.000  0.667
atom  125   Tr[ns(na)] =  10.00000
    eigenvalues: 
  1.000  1.000  1.000  1.000  1.000
    eigenvectors:
  1.000  0.000  0.000  0.000  0.000
  0.000  1.000  0.000  0.000  0.000
  0.000  0.000  1.000  0.000  0.000
  0.000  0.000  0.000  1.000  0.000
  0.000  0.000  0.000  0.000  1.000
    occupations:
  1.000  0.000  0.000  0.000  0.000
  0.000  1.000  0.000  0.000  0.000
  0.000  0.000  1.000  0.000  0.000
  0.000  0.000  0.000  1.000  0.000
  0.000  0.000  0.000  0.000  1.000
atom  126   Tr[ns(na)] =  10.00000
    eigenvalues: 
  1.000  1.000  1.000  1.000  1.000
    eigenvectors:
  1.000  0.000  0.000  0.000  0.000
  0.000  1.000  0.000  0.000  0.000
  0.000  0.000  1.000  0.000  0.000
  0.000  0.000  0.000  1.000  0.000
  0.000  0.000  0.000  0.000  1.000
    occupations:
  1.000  0.000  0.000  0.000  0.000
  0.000  1.000  0.000  0.000  0.000
  0.000  0.000  1.000  0.000  0.000
  0.000  0.000  0.000  1.000  0.000
  0.000  0.000  0.000  0.000  1.000
atom  127   Tr[ns(na)] =   4.00000
    eigenvalues: 
  0.667  0.667  0.667
    eigenvectors:
  1.000  0.000  0.000
  0.000  1.000  0.000
  0.000  0.000  1.000
    occupations:
  0.667  0.000  0.000
  0.000  0.667  0.000
  0.000  0.000  0.667
atom  128   Tr[ns(na)] =   4.00000
    eigenvalues: 
  0.667  0.667  0.667
    eigenvectors:
  1.000  0.000  0.000
  0.000  1.000  0.000
  0.000  0.000  1.000
    occupations:
  0.667  0.000  0.000
  0.000  0.667  0.000
  0.000  0.000  0.667
atom  130   Tr[ns(na)] =  10.00000
    eigenvalues: 
  1.000  1.000  1.000  1.000  1.000
    eigenvectors:
  1.000  0.000  0.000  0.000  0.000
  0.000  1.000  0.000  0.000  0.000
  0.000  0.000  1.000  0.000  0.000
  0.000  0.000  0.000  1.000  0.000
  0.000  0.000  0.000  0.000  1.000
    occupations:
  1.000  0.000  0.000  0.000  0.000
  0.000  1.000  0.000  0.000  0.000
  0.000  0.000  1.000  0.000  0.000
  0.000  0.000  0.000  1.000  0.000
  0.000  0.000  0.000  0.000  1.000
atom  131   Tr[ns(na)] =   4.00000
    eigenvalues: 
  0.667  0.667  0.667
    eigenvectors:
  1.000  0.000  0.000
  0.000  1.000  0.000
  0.000  0.000  1.000
    occupations:
  0.667  0.000  0.000
  0.000  0.667  0.000
  0.000  0.000  0.667
atom  132   Tr[ns(na)] =   4.00000
    eigenvalues: 
  0.667  0.667  0.667
    eigenvectors:
  1.000  0.000  0.000
  0.000  1.000  0.000
  0.000  0.000  1.000
    occupations:
  0.667  0.000  0.000
  0.000  0.667  0.000
  0.000  0.000  0.667
atom  133   Tr[ns(na)] =  10.00000
    eigenvalues: 
  1.000  1.000  1.000  1.000  1.000
    eigenvectors:
  1.000  0.000  0.000  0.000  0.000
  0.000  1.000  0.000  0.000  0.000
  0.000  0.000  1.000  0.000  0.000
  0.000  0.000  0.000  1.000  0.000
  0.000  0.000  0.000  0.000  1.000
    occupations:
  1.000  0.000  0.000  0.000  0.000
  0.000  1.000  0.000  0.000  0.000
  0.000  0.000  1.000  0.000  0.000
  0.000  0.000  0.000  1.000  0.000
  0.000  0.000  0.000  0.000  1.000
atom  134   Tr[ns(na)] =  10.00000
    eigenvalues: 
  1.000  1.000  1.000  1.000  1.000
    eigenvectors:
  1.000  0.000  0.000  0.000  0.000
  0.000  1.000  0.000  0.000  0.000
  0.000  0.000  1.000  0.000  0.000
  0.000  0.000  0.000  1.000  0.000
  0.000  0.000  0.000  0.000  1.000
    occupations:
  1.000  0.000  0.000  0.000  0.000
  0.000  1.000  0.000  0.000  0.000
  0.000  0.000  1.000  0.000  0.000
  0.000  0.000  0.000  1.000  0.000
  0.000  0.000  0.000  0.000  1.000
atom  135   Tr[ns(na)] =   4.00000
    eigenvalues: 
  0.667  0.667  0.667
    eigenvectors:
  1.000  0.000  0.000
  0.000  1.000  0.000
  0.000  0.000  1.000
    occupations:
  0.667  0.000  0.000
  0.000  0.667  0.000
  0.000  0.000  0.667
atom  136   Tr[ns(na)] =   4.00000
    eigenvalues: 
  0.667  0.667  0.667
    eigenvectors:
  1.000  0.000  0.000
  0.000  1.000  0.000
  0.000  0.000  1.000
    occupations:
  0.667  0.000  0.000
  0.000  0.667  0.000
  0.000  0.000  0.667
atom  137   Tr[ns(na)] =  10.00000
    eigenvalues: 
  1.000  1.000  1.000  1.000  1.000
    eigenvectors:
  1.000  0.000  0.000  0.000  0.000
  0.000  1.000  0.000  0.000  0.000
  0.000  0.000  1.000  0.000  0.000
  0.000  0.000  0.000  1.000  0.000
  0.000  0.000  0.000  0.000  1.000
    occupations:
  1.000  0.000  0.000  0.000  0.000
  0.000  1.000  0.000  0.000  0.000
  0.000  0.000  1.000  0.000  0.000
  0.000  0.000  0.000  1.000  0.000
  0.000  0.000  0.000  0.000  1.000
atom  138   Tr[ns(na)] =  10.00000
    eigenvalues: 
  1.000  1.000  1.000  1.000  1.000
    eigenvectors:
  1.000  0.000  0.000  0.000  0.000
  0.000  1.000  0.000  0.000  0.000
  0.000  0.000  1.000  0.000  0.000
  0.000  0.000  0.000  1.000  0.000
  0.000  0.000  0.000  0.000  1.000
    occupations:
  1.000  0.000  0.000  0.000  0.000
  0.000  1.000  0.000  0.000  0.000
  0.000  0.000  1.000  0.000  0.000
  0.000  0.000  0.000  1.000  0.000
  0.000  0.000  0.000  0.000  1.000
atom  139   Tr[ns(na)] =   4.00000
    eigenvalues: 
  0.667  0.667  0.667
    eigenvectors:
  1.000  0.000  0.000
  0.000  1.000  0.000
  0.000  0.000  1.000
    occupations:
  0.667  0.000  0.000
  0.000  0.667  0.000
  0.000  0.000  0.667
atom  140   Tr[ns(na)] =   4.00000
    eigenvalues: 
  0.667  0.667  0.667
    eigenvectors:
  1.000  0.000  0.000
  0.000  1.000  0.000
  0.000  0.000  1.000
    occupations:
  0.667  0.000  0.000
  0.000  0.667  0.000
  0.000  0.000  0.667
atom  141   Tr[ns(na)] =  10.00000
    eigenvalues: 
  1.000  1.000  1.000  1.000  1.000
    eigenvectors:
  1.000  0.000  0.000  0.000  0.000
  0.000  1.000  0.000  0.000  0.000
  0.000  0.000  1.000  0.000  0.000
  0.000  0.000  0.000  1.000  0.000
  0.000  0.000  0.000  0.000  1.000
    occupations:
  1.000  0.000  0.000  0.000  0.000
  0.000  1.000  0.000  0.000  0.000
  0.000  0.000  1.000  0.000  0.000
  0.000  0.000  0.000  1.000  0.000
  0.000  0.000  0.000  0.000  1.000
atom  142   Tr[ns(na)] =  10.00000
    eigenvalues: 
  1.000  1.000  1.000  1.000  1.000
    eigenvectors:
  1.000  0.000  0.000  0.000  0.000
  0.000  1.000  0.000  0.000  0.000
  0.000  0.000  1.000  0.000  0.000
  0.000  0.000  0.000  1.000  0.000
  0.000  0.000  0.000  0.000  1.000
    occupations:
  1.000  0.000  0.000  0.000  0.000
  0.000  1.000  0.000  0.000  0.000
  0.000  0.000  1.000  0.000  0.000
  0.000  0.000  0.000  1.000  0.000
  0.000  0.000  0.000  0.000  1.000
atom  143   Tr[ns(na)] =   4.00000
    eigenvalues: 
  0.667  0.667  0.667
    eigenvectors:
  1.000  0.000  0.000
  0.000  1.000  0.000
  0.000  0.000  1.000
    occupations:
  0.667  0.000  0.000
  0.000  0.667  0.000
  0.000  0.000  0.667
atom  144   Tr[ns(na)] =   4.00000
    eigenvalues: 
  0.667  0.667  0.667
    eigenvectors:
  1.000  0.000  0.000
  0.000  1.000  0.000
  0.000  0.000  1.000
    occupations:
  0.667  0.000  0.000
  0.000  0.667  0.000
  0.000  0.000  0.667
atom  145   Tr[ns(na)] =  10.00000
    eigenvalues: 
  1.000  1.000  1.000  1.000  1.000
    eigenvectors:
  1.000  0.000  0.000  0.000  0.000
  0.000  1.000  0.000  0.000  0.000
  0.000  0.000  1.000  0.000  0.000
  0.000  0.000  0.000  1.000  0.000
  0.000  0.000  0.000  0.000  1.000
    occupations:
  1.000  0.000  0.000  0.000  0.000
  0.000  1.000  0.000  0.000  0.000
  0.000  0.000  1.000  0.000  0.000
  0.000  0.000  0.000  1.000  0.000
  0.000  0.000  0.000  0.000  1.000
atom  146   Tr[ns(na)] =  10.00000
    eigenvalues: 
  1.000  1.000  1.000  1.000  1.000
    eigenvectors:
  1.000  0.000  0.000  0.000  0.000
  0.000  1.000  0.000  0.000  0.000
  0.000  0.000  1.000  0.000  0.000
  0.000  0.000  0.000  1.000  0.000
  0.000  0.000  0.000  0.000  1.000
    occupations:
  1.000  0.000  0.000  0.000  0.000
  0.000  1.000  0.000  0.000  0.000
  0.000  0.000  1.000  0.000  0.000
  0.000  0.000  0.000  1.000  0.000
  0.000  0.000  0.000  0.000  1.000
atom  147   Tr[ns(na)] =   4.00000
    eigenvalues: 
  0.667  0.667  0.667
    eigenvectors:
  1.000  0.000  0.000
  0.000  1.000  0.000
  0.000  0.000  1.000
    occupations:
  0.667  0.000  0.000
  0.000  0.667  0.000
  0.000  0.000  0.667
atom  148   Tr[ns(na)] =   4.00000
    eigenvalues: 
  0.667  0.667  0.667
    eigenvectors:
  1.000  0.000  0.000
  0.000  1.000  0.000
  0.000  0.000  1.000
    occupations:
  0.667  0.000  0.000
  0.000  0.667  0.000
  0.000  0.000  0.667
atom  150   Tr[ns(na)] =  10.00000
    eigenvalues: 
  1.000  1.000  1.000  1.000  1.000
    eigenvectors:
  1.000  0.000  0.000  0.000  0.000
  0.000  1.000  0.000  0.000  0.000
  0.000  0.000  1.000  0.000  0.000
  0.000  0.000  0.000  1.000  0.000
  0.000  0.000  0.000  0.000  1.000
    occupations:
  1.000  0.000  0.000  0.000  0.000
  0.000  1.000  0.000  0.000  0.000
  0.000  0.000  1.000  0.000  0.000
  0.000  0.000  0.000  1.000  0.000
  0.000  0.000  0.000  0.000  1.000
atom  151   Tr[ns(na)] =   4.00000
    eigenvalues: 
  0.667  0.667  0.667
    eigenvectors:
  1.000  0.000  0.000
  0.000  1.000  0.000
  0.000  0.000  1.000
    occupations:
  0.667  0.000  0.000
  0.000  0.667  0.000
  0.000  0.000  0.667
atom  152   Tr[ns(na)] =   4.00000
    eigenvalues: 
  0.667  0.667  0.667
    eigenvectors:
  1.000  0.000  0.000
  0.000  1.000  0.000
  0.000  0.000  1.000
    occupations:
  0.667  0.000  0.000
  0.000  0.667  0.000
  0.000  0.000  0.667
atom  153   Tr[ns(na)] =  10.00000
    eigenvalues: 
  1.000  1.000  1.000  1.000  1.000
    eigenvectors:
  1.000  0.000  0.000  0.000  0.000
  0.000  1.000  0.000  0.000  0.000
  0.000  0.000  1.000  0.000  0.000
  0.000  0.000  0.000  1.000  0.000
  0.000  0.000  0.000  0.000  1.000
    occupations:
  1.000  0.000  0.000  0.000  0.000
  0.000  1.000  0.000  0.000  0.000
  0.000  0.000  1.000  0.000  0.000
  0.000  0.000  0.000  1.000  0.000
  0.000  0.000  0.000  0.000  1.000
atom  154   Tr[ns(na)] =  10.00000
    eigenvalues: 
  1.000  1.000  1.000  1.000  1.000
    eigenvectors:
  1.000  0.000  0.000  0.000  0.000
  0.000  1.000  0.000  0.000  0.000
  0.000  0.000  1.000  0.000  0.000
  0.000  0.000  0.000  1.000  0.000
  0.000  0.000  0.000  0.000  1.000
    occupations:
  1.000  0.000  0.000  0.000  0.000
  0.000  1.000  0.000  0.000  0.000
  0.000  0.000  1.000  0.000  0.000
  0.000  0.000  0.000  1.000  0.000
  0.000  0.000  0.000  0.000  1.000
atom  155   Tr[ns(na)] =   4.00000
    eigenvalues: 
  0.667  0.667  0.667
    eigenvectors:
  1.000  0.000  0.000
  0.000  1.000  0.000
  0.000  0.000  1.000
    occupations:
  0.667  0.000  0.000
  0.000  0.667  0.000
  0.000  0.000  0.667
atom  156   Tr[ns(na)] =   4.00000
    eigenvalues: 
  0.667  0.667  0.667
    eigenvectors:
  1.000  0.000  0.000
  0.000  1.000  0.000
  0.000  0.000  1.000
    occupations:
  0.667  0.000  0.000
  0.000  0.667  0.000
  0.000  0.000  0.667
atom  157   Tr[ns(na)] =  10.00000
    eigenvalues: 
  1.000  1.000  1.000  1.000  1.000
    eigenvectors:
  1.000  0.000  0.000  0.000  0.000
  0.000  1.000  0.000  0.000  0.000
  0.000  0.000  1.000  0.000  0.000
  0.000  0.000  0.000  1.000  0.000
  0.000  0.000  0.000  0.000  1.000
    occupations:
  1.000  0.000  0.000  0.000  0.000
  0.000  1.000  0.000  0.000  0.000
  0.000  0.000  1.000  0.000  0.000
  0.000  0.000  0.000  1.000  0.000
  0.000  0.000  0.000  0.000  1.000
atom  158   Tr[ns(na)] =  10.00000
    eigenvalues: 
  1.000  1.000  1.000  1.000  1.000
    eigenvectors:
  1.000  0.000  0.000  0.000  0.000
  0.000  1.000  0.000  0.000  0.000
  0.000  0.000  1.000  0.000  0.000
  0.000  0.000  0.000  1.000  0.000
  0.000  0.000  0.000  0.000  1.000
    occupations:
  1.000  0.000  0.000  0.000  0.000
  0.000  1.000  0.000  0.000  0.000
  0.000  0.000  1.000  0.000  0.000
  0.000  0.000  0.000  1.000  0.000
  0.000  0.000  0.000  0.000  1.000
atom  159   Tr[ns(na)] =   4.00000
    eigenvalues: 
  0.667  0.667  0.667
    eigenvectors:
  1.000  0.000  0.000
  0.000  1.000  0.000
  0.000  0.000  1.000
    occupations:
  0.667  0.000  0.000
  0.000  0.667  0.000
  0.000  0.000  0.667
atom  160   Tr[ns(na)] =   4.00000
    eigenvalues: 
  0.667  0.667  0.667
    eigenvectors:
  1.000  0.000  0.000
  0.000  1.000  0.000
  0.000  0.000  1.000
    occupations:
  0.667  0.000  0.000
  0.000  0.667  0.000
  0.000  0.000  0.667
atom  161   Tr[ns(na)] =  10.00000
    eigenvalues: 
  1.000  1.000  1.000  1.000  1.000
    eigenvectors:
  1.000  0.000  0.000  0.000  0.000
  0.000  1.000  0.000  0.000  0.000
  0.000  0.000  1.000  0.000  0.000
  0.000  0.000  0.000  1.000  0.000
  0.000  0.000  0.000  0.000  1.000
    occupations:
  1.000  0.000  0.000  0.000  0.000
  0.000  1.000  0.000  0.000  0.000
  0.000  0.000  1.000  0.000  0.000
  0.000  0.000  0.000  1.000  0.000
  0.000  0.000  0.000  0.000  1.000
atom  162   Tr[ns(na)] =  10.00000
    eigenvalues: 
  1.000  1.000  1.000  1.000  1.000
    eigenvectors:
  1.000  0.000  0.000  0.000  0.000
  0.000  1.000  0.000  0.000  0.000
  0.000  0.000  1.000  0.000  0.000
  0.000  0.000  0.000  1.000  0.000
  0.000  0.000  0.000  0.000  1.000
    occupations:
  1.000  0.000  0.000  0.000  0.000
  0.000  1.000  0.000  0.000  0.000
  0.000  0.000  1.000  0.000  0.000
  0.000  0.000  0.000  1.000  0.000
  0.000  0.000  0.000  0.000  1.000
atom  163   Tr[ns(na)] =   4.00000
    eigenvalues: 
  0.667  0.667  0.667
    eigenvectors:
  1.000  0.000  0.000
  0.000  1.000  0.000
  0.000  0.000  1.000
    occupations:
  0.667  0.000  0.000
  0.000  0.667  0.000
  0.000  0.000  0.667
atom  164   Tr[ns(na)] =   4.00000
    eigenvalues: 
  0.667  0.667  0.667
    eigenvectors:
  1.000  0.000  0.000
  0.000  1.000  0.000
  0.000  0.000  1.000
    occupations:
  0.667  0.000  0.000
  0.000  0.667  0.000
  0.000  0.000  0.667
atom  165   Tr[ns(na)] =  10.00000
    eigenvalues: 
  1.000  1.000  1.000  1.000  1.000
    eigenvectors:
  1.000  0.000  0.000  0.000  0.000
  0.000  1.000  0.000  0.000  0.000
  0.000  0.000  1.000  0.000  0.000
  0.000  0.000  0.000  1.000  0.000
  0.000  0.000  0.000  0.000  1.000
    occupations:
  1.000  0.000  0.000  0.000  0.000
  0.000  1.000  0.000  0.000  0.000
  0.000  0.000  1.000  0.000  0.000
  0.000  0.000  0.000  1.000  0.000
  0.000  0.000  0.000  0.000  1.000
atom  166   Tr[ns(na)] =  10.00000
    eigenvalues: 
  1.000  1.000  1.000  1.000  1.000
    eigenvectors:
  1.000  0.000  0.000  0.000  0.000
  0.000  1.000  0.000  0.000  0.000
  0.000  0.000  1.000  0.000  0.000
  0.000  0.000  0.000  1.000  0.000
  0.000  0.000  0.000  0.000  1.000
    occupations:
  1.000  0.000  0.000  0.000  0.000
  0.000  1.000  0.000  0.000  0.000
  0.000  0.000  1.000  0.000  0.000
  0.000  0.000  0.000  1.000  0.000
  0.000  0.000  0.000  0.000  1.000
atom  167   Tr[ns(na)] =   4.00000
    eigenvalues: 
  0.667  0.667  0.667
    eigenvectors:
  1.000  0.000  0.000
  0.000  1.000  0.000
  0.000  0.000  1.000
    occupations:
  0.667  0.000  0.000
  0.000  0.667  0.000
  0.000  0.000  0.667
atom  168   Tr[ns(na)] =   4.00000
    eigenvalues: 
  0.667  0.667  0.667
    eigenvectors:
  1.000  0.000  0.000
  0.000  1.000  0.000
  0.000  0.000  1.000
    occupations:
  0.667  0.000  0.000
  0.000  0.667  0.000
  0.000  0.000  0.667
atom  169   Tr[ns(na)] =  10.00000
    eigenvalues: 
[...]
    eigenvectors:
  0.119  0.661  0.216  0.000  0.003
  0.168  0.005  0.161  0.651  0.014
  0.094  0.107  0.056  0.014  0.730
  0.282  0.222  0.243  0.003  0.249
  0.337  0.005  0.323  0.332  0.003
    occupations:
  0.999  0.000 -0.000  0.000  0.000
  0.000  0.999 -0.000 -0.000 -0.001
 -0.000 -0.000  1.000 -0.000 -0.000
  0.000 -0.000 -0.000  0.999 -0.000
  0.000 -0.001 -0.000 -0.000  0.999
atom  190   Tr[ns(na)] =   9.99150
    eigenvalues: 
  0.999  0.999  0.999  1.000  1.000
    eigenvectors:
  0.007  0.107  0.886  0.000  0.000
  0.035  0.302  0.032  0.461  0.169
  0.313  0.032  0.012  0.162  0.481
  0.575  0.048  0.020  0.098  0.259
  0.070  0.511  0.049  0.279  0.091
    occupations:
  0.999  0.000  0.000 -0.000 -0.000
  0.000  0.999 -0.000 -0.000  0.001
  0.000 -0.000  0.999  0.001 -0.000
 -0.000 -0.000  0.001  0.999  0.000
 -0.000  0.001 -0.000  0.000  0.999
atom  191   Tr[ns(na)] =   5.75603
    eigenvalues: 
  0.959  0.959  0.960
    eigenvectors:
  0.558  0.142  0.300
  0.369  0.522  0.110
  0.074  0.337  0.590
    occupations:
  0.959 -0.000 -0.000
 -0.000  0.959  0.000
 -0.000  0.000  0.960
atom  192   Tr[ns(na)] =   5.77482
    eigenvalues: 
  0.961  0.962  0.964
    eigenvectors:
  0.011  0.867  0.122
  0.245  0.065  0.689
  0.743  0.068  0.188
    occupations:
  0.962  0.001  0.000
  0.001  0.963  0.001
  0.000  0.001  0.962
atom  193   Tr[ns(na)] =   9.99153
    eigenvalues: 
  0.999  0.999  0.999  1.000  1.000
    eigenvectors:
  0.019  0.446  0.534  0.000  0.000
  0.313  0.017  0.000  0.011  0.659
  0.013  0.177  0.154  0.643  0.014
  0.019  0.326  0.311  0.338  0.005
  0.637  0.034  0.001  0.007  0.322
    occupations:
  0.999 -0.000  0.000  0.000  0.000
 -0.000  0.999 -0.000 -0.000 -0.001
  0.000 -0.000  0.999 -0.000 -0.000
  0.000 -0.000 -0.000  0.999 -0.000
  0.000 -0.001 -0.000 -0.000  0.999
atom  194   Tr[ns(na)] =   9.99131
    eigenvalues: 
  0.999  0.999  0.999  1.000  1.000
    eigenvectors:
  0.036  0.047  0.917  0.000  0.000
  0.008  0.307  0.011  0.385  0.288
  0.331  0.004  0.018  0.279  0.367
  0.609  0.009  0.029  0.150  0.203
  0.016  0.634  0.024  0.185  0.141
    occupations:
  0.999  0.000  0.000 -0.000 -0.000
  0.000  0.999  0.000 -0.000  0.001
  0.000  0.000  0.999  0.001 -0.000
 -0.000 -0.000  0.001  0.999  0.000
 -0.000  0.001 -0.000  0.000  0.999
atom  195   Tr[ns(na)] =   5.75528
    eigenvalues: 
  0.958  0.959  0.960
    eigenvectors:
  0.237  0.015  0.748
  0.000  0.983  0.017
  0.762  0.002  0.235
    occupations:
  0.960  0.000 -0.001
  0.000  0.960 -0.000
 -0.001 -0.000  0.958
atom  196   Tr[ns(na)] =   5.75519
    eigenvalues: 
  0.958  0.959  0.960
    eigenvectors:
  0.258  0.005  0.737
  0.539  0.309  0.152
  0.203  0.686  0.111
    occupations:
  0.960 -0.001 -0.000
 -0.001  0.959 -0.000
 -0.000 -0.000  0.959
atom  197   Tr[ns(na)] =   9.99166
    eigenvalues: 
  0.999  0.999  0.999  1.000  1.000
    eigenvectors:
  0.079  0.685  0.231  0.000  0.004
  0.240  0.043  0.000  0.125  0.592
  0.027  0.068  0.211  0.547  0.147
  0.033  0.115  0.546  0.268  0.038
  0.621  0.089  0.011  0.060  0.219
    occupations:
  0.999 -0.000  0.000  0.000  0.000
 -0.000  0.999 -0.000 -0.000 -0.001
  0.000 -0.000  1.000 -0.000 -0.000
  0.000 -0.000 -0.000  0.999 -0.000
  0.000 -0.001 -0.000 -0.000  0.999
atom  198   Tr[ns(na)] =   9.99143
    eigenvalues: 
  0.999  0.999  0.999  1.000  1.000
    eigenvectors:
  0.142  0.649  0.209  0.001  0.000
  0.003  0.089  0.189  0.710  0.009
  0.261  0.021  0.031  0.010  0.676
  0.580  0.043  0.064  0.003  0.310
  0.015  0.198  0.507  0.276  0.004
    occupations:
  0.999  0.000  0.000 -0.000 -0.000
  0.000  0.999  0.000 -0.000  0.000
  0.000  0.000  0.999  0.001 -0.000
 -0.000 -0.000  0.001  0.999  0.000
 -0.000  0.000 -0.000  0.000  0.999
atom  199   Tr[ns(na)] =   5.75557
    eigenvalues: 
  0.958  0.959  0.960
    eigenvectors:
  0.145  0.810  0.045
  0.084  0.010  0.906
  0.771  0.180  0.049
    occupations:
  0.959 -0.000 -0.000
 -0.000  0.960 -0.000
 -0.000 -0.000  0.959
atom  200   Tr[ns(na)] =   5.75541
    eigenvalues: 
  0.958  0.959  0.961
    eigenvectors:
  0.030  0.030  0.940
  0.438  0.562  0.000
  0.531  0.409  0.060
    occupations:
  0.960 -0.000 -0.000
 -0.000  0.959 -0.000
 -0.000 -0.000  0.959
N of occupied +U levels = 1525.103038
 --- exit write_ns ---

          k = 0.0000 0.0000 0.0000 ( 15451 PWs)   bands (ev):

   -10.6685 -10.4693 -10.4477 -10.4416 -10.2755 -10.0379 -10.0040 -10.0004
    -9.8969  -9.8769  -9.8486  -9.8322  -9.7831  -9.7626  -9.7395  -9.6946
    -9.6840  -9.6681  -9.6640  -9.6504  -9.6208  -9.6184  -9.6063  -9.5958
    -9.5891  -9.5640  -9.5592  -9.5457  -9.5251  -9.5121  -9.5061  -9.4988
    -9.4887  -9.4690  -9.4631  -9.4475  -9.4330  -9.4184  -9.4091  -9.3923
    -9.3870  -9.3612  -9.3607  -9.3511  -9.3309  -9.3257  -9.3224  -9.3170
    -9.3069  -9.3011  -9.2979  -9.2857  -9.2827  -9.2711  -9.2554  -9.2505
    -9.2457  -9.2447  -9.2435  -9.2355  -9.2333  -9.2258  -9.2177  -9.2075
    -9.2038  -9.1970  -9.1960  -9.1862  -9.1807  -9.1707  -9.1686  -9.1600
    -9.1548  -9.1534  -9.1513  -9.1503  -9.1419  -9.1418  -9.1349  -9.1232
    -9.1193  -9.1142  -9.1027  -9.1010  -9.0867  -9.0861  -9.0821  -9.0760
    -9.0689  -9.0582  -9.0562  -9.0547  -9.0473  -9.0319  -9.0313  -9.0046
    -8.9998  -8.9833  -8.9671  -8.9523  -3.2889  -3.1128  -3.1096  -3.0763
    -3.0274  -3.0108  -2.9896  -2.9414  -2.9362  -2.8928  -2.8679  -2.8625
    -2.8432  -2.8147  -2.8028  -2.7946  -2.7806  -2.7675  -2.7633  -2.7279
    -2.7221  -2.7082  -2.6935  -2.6933  -2.6760  -2.6699  -2.6516  -2.6379
    -2.6334  -2.6327  -2.6261  -2.6178  -2.6108  -2.6003  -2.5911  -2.5897
    -2.5851  -2.5769  -2.5718  -2.5589  -2.5481  -2.5437  -2.5335  -2.5319
    -2.5140  -2.5108  -2.5002  -2.4973  -2.4875  -2.4778  -2.4744  -2.4680
    -2.4678  -2.4666  -2.4531  -2.4503  -2.4420  -2.4386  -2.4369  -2.4271
    -2.4165  -2.4158  -2.4129  -2.4125  -2.4041  -2.4015  -2.3938  -2.3937
    -2.3847  -2.3792  -2.3767  -2.3709  -2.3659  -2.3653  -2.3554  -2.3494
    -2.3445  -2.3434  -2.3340  -2.3193  -2.3124  -2.3073  -2.2973  -2.2925
    -2.2894  -2.2877  -2.2795  -2.2789  -2.2558  -2.2501  -2.2472  -2.2388
    -2.2377  -2.2255  -2.2191  -2.2116  -2.2072  -2.1913  -2.1837  -2.1809
    -2.1669  -2.1635  -2.1613  -2.1534  -2.1479  -2.1461  -2.1447  -2.1375
    -2.1351  -2.1344  -2.1247  -2.1123  -2.1077  -2.1063  -2.0952  -2.0888
    -2.0877  -2.0776  -2.0764  -2.0740  -2.0668  -2.0631  -2.0626  -2.0496
    -2.0438  -2.0379  -2.0290  -2.0268  -2.0228  -2.0157  -2.0122  -2.0084
    -2.0024  -2.0005  -1.9961  -1.9839  -1.9806  -1.9778  -1.9707  -1.9689
    -1.9678  -1.9644  -1.9615  -1.9547  -1.9476  -1.9447  -1.9427  -1.9359
    -1.9325  -1.9277  -1.9203  -1.9094  -1.9070  -1.9034  -1.9029  -1.8999
    -1.8986  -1.8922  -1.8881  -1.8859  -1.8773  -1.8723  -1.8669  -1.8663
    -1.8629  -1.8588  -1.8543  -1.8535  -1.8439  -1.8420  -1.8377  -1.8343
    -1.8245  -1.8163  -1.8130  -1.8039  -1.7970  -1.7905  -1.7891  -1.7849
    -1.7775  -1.7692  -1.7671  -1.7594  -1.7574  -1.7499  -1.7474  -1.7469
    -1.7381  -1.7354  -1.7277  -1.7247  -1.7203  -1.7113  -1.7103  -1.7081
    -1.7056  -1.7011  -1.6899  -1.6894  -1.6861  -1.6762  -1.6739  -1.6717
    -1.6620  -1.6568  -1.6496  -1.6495  -1.6309  -1.6305  -1.6235  -1.6217
    -1.6183  -1.6116  -1.6107  -1.5994  -1.5981  -1.5966  -1.5863  -1.5762
    -1.5756  -1.5750  -1.5693  -1.5655  -1.5504  -1.5503  -1.5470  -1.5424
    -1.5412  -1.5372  -1.5334  -1.5293  -1.5247  -1.5183  -1.5072  -1.5070
    -1.5030  -1.4846  -1.4824  -1.4778  -1.4711  -1.4669  -1.4447  -1.4416
    -1.4365  -1.4324  -1.4235  -1.4134  -1.4105  -1.4061  -1.3987  -1.3904
    -1.3888  -1.3865  -1.3787  -1.3769  -1.3638  -1.3588  -1.3582  -1.3498
    -1.3486  -1.3415  -1.3320  -1.3211  -1.3207  -1.3185  -1.3171  -1.2999
    -1.2996  -1.2988  -1.2884  -1.2824  -1.2824  -1.2778  -1.2745  -1.2700
    -1.2648  -1.2563  -1.2520  -1.2487  -1.2478  -1.2415  -1.2404  -1.2258
    -1.2203  -1.2153  -1.2072  -1.2046  -1.1962  -1.1810  -1.1793  -1.1765
    -1.1728  -1.1685  -1.1588  -1.1533  -1.1501  -1.1445  -1.1415  -1.1301
    -1.1286  -1.1193  -1.1191  -1.1125  -1.1096  -1.1010  -1.0938  -1.0929
    -1.0892  -1.0782  -1.0695  -1.0661  -1.0576  -1.0527  -1.0519  -1.0341
    -1.0317  -1.0284  -1.0160  -1.0145  -1.0049  -1.0036  -0.9899  -0.9863
    -0.9783  -0.9741  -0.9736  -0.9710  -0.9697  -0.9593  -0.9577  -0.9535
    -0.9510  -0.9430  -0.9402  -0.9324  -0.9314  -0.9221  -0.9214  -0.9130
    -0.9123  -0.9067  -0.8981  -0.8968  -0.8915  -0.8825  -0.8743  -0.8682
    -0.8655  -0.8649  -0.8573  -0.8507  -0.8477  -0.8367  -0.8342  -0.8320
    -0.8239  -0.8222  -0.8171  -0.8118  -0.8047  -0.7996  -0.7937  -0.7879
    -0.7870  -0.7750  -0.7709  -0.7672  -0.7665  -0.7645  -0.7583  -0.7528
    -0.7509  -0.7483  -0.7448  -0.7419  -0.7368  -0.7342  -0.7300  -0.7263
    -0.7226  -0.7127  -0.7079  -0.7057  -0.6985  -0.6944  -0.6943  -0.6893
    -0.6854  -0.6798  -0.6671  -0.6644  -0.6584  -0.6544  -0.6524  -0.6448
    -0.6442  -0.6438  -0.6300  -0.6246  -0.6220  -0.6153  -0.6087  -0.6062
    -0.5967  -0.5956  -0.5902  -0.5852  -0.5754  -0.5724  -0.5680  -0.5648
    -0.5612  -0.5604  -0.5511  -0.5348  -0.5279  -0.5228  -0.5204  -0.5102
    -0.4942  -0.4876  -0.4764  -0.4720  -0.4693  -0.4575  -0.4538  -0.4445
    -0.4273  -0.3886  -0.3881  -0.3693  -0.3670  -0.3604  -0.3475  -0.3371
    -0.3277  -0.3155  -0.3019  -0.3003  -0.2872  -0.2673  -0.2576  -0.2496
    -0.2249  -0.2162  -0.2107  -0.1667  -0.1480  -0.1447  -0.0994  -0.0898
    -0.0704  -0.0463  -0.0321  -0.0109   0.0053   0.0172   0.0363   0.0960
     0.1007   0.1230   0.1241   0.1626   0.1724   0.1816   0.1909   0.1970
     0.1999   0.2230   0.2339   0.2450   0.2864   0.2934   0.3059   0.3770
     0.3919   0.4579   0.4833   0.5085   0.5747   0.6000   0.6007   0.6187
     0.6757   0.7232   0.7389   0.7909   0.8372   0.8440   0.8841   0.8844
     0.8920   0.9578   0.9588   0.9906   0.9963   1.0241   1.0469   1.0622
     1.0763   1.0981   1.1623   1.1635   1.2031   1.2099   1.2127   1.2406
     1.2506   1.2816   1.2992   1.3375   1.3406   1.3539   1.3695   1.3764
     1.3973   1.4116   1.4298   1.4475   1.4570   1.4802   1.5012   1.5305
     1.5379   1.5513   1.5851   1.5990   1.6633   1.6848   1.6856   1.7177
     1.7447   1.7712   1.7944   1.8087   1.8272   1.8417   1.8744   1.8952
     1.9120   1.9564   1.9907   1.9999   2.0120   2.0136   2.0478   2.0609
     2.0901   2.1081   2.1237   2.1739   2.2050   2.2218   2.2499   2.2676
     2.2688   2.2888   2.3121   2.3291   2.3536   2.3755   2.4075   2.4522
     2.4708   2.4962   2.5381   2.5565   2.5690   2.6156   2.6585   2.6764
     2.6856   2.7100   2.7250   2.7369   2.7670   2.7746   2.8444   2.8596
     2.8678   2.9170   2.9535   2.9558   2.9756   2.9985   3.0180   3.0395
     3.0412   3.0737   3.0882   3.1207   3.1284   3.1582   3.1617   3.2065
     3.2244   3.2335   3.2424   3.2934   3.2947   3.3090   3.3135   3.3313
     3.3379   3.3478   3.3862   3.3940   3.3997   3.4150   3.4179   3.4632
     3.4655   3.4736   3.4791   3.5048   3.5249   3.5548   3.5572   3.6067
     3.6181   3.6183   3.6399   3.6876   3.6911   3.6940   3.7358   3.7448
     3.7538   3.7873   3.8061   3.8372   3.8592   3.8979   3.9047   3.9354
     3.9458   3.9494   3.9581   3.9839   3.9952   4.0147   4.0164   4.0316
     4.0425   4.0802   4.0953   4.1033   4.1222   4.1577   4.1660   4.1706
     4.1875   4.2016   4.2122   4.2293   4.2452   4.2633   4.2934   4.3139
     4.3146   4.3281   4.3550   4.3728   4.3746   4.3841   4.4119   4.4192
     4.4226   4.4643   4.4821   4.4835   4.5039   4.5108   4.5152   4.5211
     4.5301   4.5458   4.5534   4.5628   4.5652   4.5659   4.5763   4.5809
     4.5830   4.6007   4.6012   4.6417   4.6454   4.6622   4.6674   4.6786
     4.6876   4.6924   4.7052   4.7162   4.7230   4.7359   4.7483   4.7538
     4.7538   4.7600   4.7810   4.7822   4.7824   4.7859   4.7994   4.8061
     4.8078   4.8239   4.8392   4.8430   4.8482   4.8667   4.8679   4.8689
     4.8733   4.8801   4.8929   4.9166   4.9213   4.9274   4.9391   4.9531
     4.9583   4.9651   4.9791   5.0012   5.0245   5.0516   5.0532   5.0736
     5.1175   5.1257   5.1333   5.1503   5.1714   5.1736   5.1783   5.1858
     5.2071   5.2096   5.2192   5.2268   5.2363   5.2571   5.2681   5.2862
     5.2884   5.2962   5.3546   5.3660   5.3664   5.3824   5.3897   5.4181
     5.4318   5.5751   5.5870   5.7056   5.7074   5.7333   5.7620   5.8161
     5.8340   5.8475   5.8514   5.8554   5.8705   5.9324   5.9615   5.9682
     6.1794   6.2406   6.2752   9.8064  11.4324  11.4559  11.4965  11.6169
    11.6511  11.6821  12.3742  12.4384  13.2046  13.2795  13.3094  13.3243
    13.3333  13.3845  13.4545  13.4580  13.5077  13.5284  13.5638  13.5783
    13.5865  13.6044  13.6928  13.7130  13.7183  13.7324  14.0140  14.0200
    14.0861  14.1690  14.1698  14.1976  14.2817  14.2871  14.3047  14.3280
    14.3472  14.3552  14.3954  14.4299  14.4670  14.5190  14.5493  14.5793
    14.6040  14.6450  14.6494  14.6710  14.6901  14.7151  14.7396  14.7496
    14.7543  14.7617  14.8037  14.8285  14.8406  15.4736  15.5304  15.5597
    15.5784  15.5916  15.6019  15.6194  15.6641  15.6740  15.6766  15.7069
    15.7161  15.7226  15.7777  15.7860  15.7892  15.7937  15.8362  15.8669
    15.8819  15.9185  15.9517  15.9948  16.0207  16.0398  16.0482  16.1937
    16.2184  16.2566  16.2709  16.2892  16.3051  16.3347  16.3989  16.4291
    16.4351  16.4609  16.4808  16.4871  16.5163  16.5282  16.5504  16.5547
    16.5888  16.6114  16.6447  16.6553  16.6828  16.6858  16.7053  16.7154
    16.7738  16.7959  16.8211  17.0349  17.1203  17.1581  17.2705  17.2729
    17.3012  17.3458  17.3612  17.3909  17.4379  17.4889  17.4970  17.5108
    17.5366  17.5376  17.5410  17.5782  17.6166  17.6279  17.6511  17.6579
    17.6786  17.6881  17.6926  17.7383  17.7478  17.7543  17.7747  17.7850
    17.7971  17.8143  17.8289  17.8527  17.8559  17.8634  17.8899  17.8924
    17.9074  17.9268  17.9299  17.9435  17.9619  17.9636  18.0042  18.0069
    18.0162  18.0198  18.0297  18.0317  18.0480  18.0627  18.0916  18.0975
    18.1171  18.1511  18.1942  18.2109  18.2197  18.2213  18.2581  18.2804
    18.3139  18.3169  18.3336  18.3800  18.3815  18.4786  18.6383  18.6683
    18.6983  18.7435  18.7483  18.8055  18.8064  18.8235  18.8307  18.8329
    18.8427  18.8591  18.9073  18.9248  18.9337  18.9400  18.9722  18.9783
    18.9936  19.0004  19.0441  19.1105  19.1347  19.1675  19.2162  19.2800
    19.2990  19.3359  19.3707  19.3973  19.4103  19.4229  19.6242  19.6404
    19.6919  19.7350  19.7566  19.7647  19.8409  19.8544  19.8612  19.8926
    19.9200  19.9388  19.9554  19.9809  19.9953  20.0156  20.0703  20.0705
    20.0778  20.0926  20.1166  20.1387  20.1622  20.1973  20.1980  20.2030
    20.2324  20.2457  20.2727  20.2939  20.2939  20.3597  20.3708  20.3868
    20.4257  20.4564  20.4905  20.4962  20.5154  20.6080  20.6256  20.6336
    20.6598  20.6754  20.6863  20.7030  20.7032  20.7386  20.7846  20.7930
    20.8855  20.9110  20.9299  20.9341  20.9637  20.9740  21.0125  21.0217
    21.0220  21.0365  21.0622  21.0723  21.0867  21.1077  21.1322  21.1477
    21.1623  21.2420  21.2615  21.3249  21.3341  21.3425  21.3490  21.3778
    21.4258  21.4336  21.4706  21.5028  21.5225  21.5319  21.5489  21.5869
    21.5911  21.6269  21.8212  21.8575  21.9149  21.9230  21.9366  21.9891
    21.9981  22.0071  22.0685  22.1163  22.1857  22.2053  22.2916  22.3069
    22.3368  22.3376  22.3901  22.4445  22.4742  22.4874  22.5112  22.5413
    22.5544  22.5695  22.5806  22.6423  22.6471  22.6505  22.6692  22.6860
    22.7126  22.7279  22.7298  22.7521  22.7576  22.7602  22.7879  22.7987
    22.8267  22.8392  22.8458  22.8466  22.8673  22.8674  22.8845  22.8957
    22.9133  22.9146  22.9404  22.9483  22.9662  22.9692  22.9745  22.9837
    22.9918  23.0073  23.0209  23.0349  23.0433  23.0545  23.0624  23.0654
    23.0679  23.0774  23.0873  23.1301  23.1538  23.1544  23.1793  23.2093
    23.2427  23.2429  23.3912  23.4165  23.4918  23.4922  23.5441  23.6046
    23.6054  23.6374  23.6961  23.7108  23.7376  23.7419  23.7846  23.8097
    23.8205  23.8478  23.8644  23.8659  23.8859  23.9103  23.9159  23.9629
    23.9822  24.0295  24.0771  24.0859  24.1233  24.2155  24.2631  24.3031
    24.3462  24.3594  24.4272  24.5432  24.5583  24.6266  24.7573  24.7663
    24.7891  24.8211  24.9488  24.9643  24.9761  25.0607  25.0702  25.1845
    25.2145  25.2234  25.2459  25.2465  25.2609  25.3049  25.3174  25.3386
    25.3470  25.3647  25.3910  25.4262  25.4296  25.4587  25.4987  25.5220
    25.5521  25.5691  25.5851  25.5932  25.6519  25.6673  25.6749  25.7228
    25.7488  25.8065  25.8228  25.8364  25.8860  25.9165  25.9362  25.9712

     highest occupied, lowest unoccupied level (ev):     6.2752    9.8064

!    total energy              =  -15237.90529925 Ry
     Harris-Foulkes estimate   =  -15237.90529945 Ry
     estimated scf accuracy    <       0.00000033 Ry

     The total energy is the sum of the following terms:

     one-electron contribution =   -7750.01694484 Ry
     hartree contribution      =    5707.16850912 Ry
     xc contribution           =   -2496.06226968 Ry
     ewald contribution        =  -10705.25321163 Ry
     Hubbard energy            =       6.25861777 Ry

     convergence has been achieved in   9 iterations

     Writing output data file espresso.save

     init_run     :     38.80s CPU     44.43s WALL (       1 calls)
     electrons    :   1095.59s CPU   1216.14s WALL (       1 calls)

     Called by init_run:
     wfcinit      :     28.67s CPU     32.89s WALL (       1 calls)
     potinit      :      4.23s CPU      4.81s WALL (       1 calls)

     Called by electrons:
     c_bands      :   1026.70s CPU   1129.59s WALL (       9 calls)
     sum_band     :     59.11s CPU     73.13s WALL (       9 calls)
     v_of_rho     :      2.66s CPU      3.72s WALL (      10 calls)
     newd         :      7.28s CPU      9.93s WALL (      10 calls)
     mix_rho      :      0.62s CPU      0.66s WALL (       9 calls)

     Called by c_bands:
     init_us_2    :      0.86s CPU      1.01s WALL (      20 calls)
     regterg      :   1024.78s CPU   1124.95s WALL (       9 calls)

     Called by sum_band:
     sum_band:bec :      0.14s CPU      0.26s WALL (       9 calls)
     addusdens    :      7.02s CPU      9.49s WALL (       9 calls)

     Called by *egterg:
     h_psi        :    333.94s CPU    394.90s WALL (      43 calls)
     s_psi        :     48.27s CPU     53.27s WALL (      44 calls)
     g_psi        :      0.12s CPU      0.13s WALL (      33 calls)
     rdiaghg      :    516.47s CPU    519.66s WALL (      42 calls)

     Called by h_psi:
     h_psi:pot    :    189.48s CPU    225.36s WALL (      43 calls)
     h_psi:calbec :     47.17s CPU     58.99s WALL (      43 calls)
     vloc_psi     :     93.19s CPU    112.99s WALL (      43 calls)
     add_vuspsi   :     49.12s CPU     53.38s WALL (      43 calls)
     vhpsi        :    143.98s CPU    168.88s WALL (      43 calls)

     General routines
     calbec       :     83.64s CPU    106.96s WALL (     105 calls)
     fft          :      2.58s CPU      4.66s WALL (     155 calls)
     ffts         :      0.03s CPU      0.22s WALL (      19 calls)
     fftw         :     70.42s CPU     86.47s WALL (   36596 calls)
     interpolate  :      0.30s CPU      0.76s WALL (      19 calls)

     Parallel routines
     fft_scatter  :     32.95s CPU     44.29s WALL (   36770 calls)

     Hubbard U routines
     new_ns       :      5.06s CPU      6.96s WALL (       9 calls)
     vhpsi        :    143.98s CPU    168.88s WALL (      43 calls)

     PWSCF        : 18m54.61s CPU    21m 2.31s WALL


   This run was terminated on:  20:27:49  13Jan2023            

=------------------------------------------------------------------------------=
   JOB DONE.
=------------------------------------------------------------------------------=
