
     Program PWSCF v.6.1 starts on 12Jan2023 at  6:31:40 

     This program is part of the open-source Quantum ESPRESSO suite
     for quantum simulation of materials; please cite
         "P. Giannozzi et al., J. Phys.:Condens. Matter 21 395502 (2009);
          URL http://www.quantum-espresso.org", 
     in publications or presentations arising from this work. More details at
     http://www.quantum-espresso.org/quote

     Parallel version (MPI & OpenMP), running on      10 processor cores
     Number of MPI processes:                10
     Threads/MPI process:                     1
     R & G space division:  proc/nbgrp/npool/nimage =      10
     Reading input from espresso.in

     Current dimensions of program PWSCF are:
     Max number of different atomic species (ntypx) = 10
     Max number of k-points (npk) =  40000
     Max angular momentum in pseudopotentials (lmaxx) =  3
               file O.pbe-rrkjus.UPF: wavefunction(s)  2S renormalized

     gamma-point specific algorithms are used

     Subspace diagonalization in iterative solution of the eigenvalue problem:
     a serial algorithm will be used


     Parallelization info
     --------------------
     sticks:   dense  smooth     PW     G-vecs:    dense   smooth      PW
     Min        1380     613    151                83959    24881    3109
     Max        1381     616    154                83964    24888    3112
     Sum       13801    6145   1531               839611   248845   31105


     Title: 
     zno_al3_crystal_opted(SCF)                                                 


     bravais-lattice index     =            0
     lattice parameter (alat)  =      29.8177  a.u.
     unit-cell volume          =   14728.6916 (a.u.)^3
     number of atoms/cell      =          200
     number of atomic types    =            3
     number of electrons       =      1770.00
     number of Kohn-Sham states=         1320
     kinetic-energy cutoff     =      25.0000  Ry
     charge density cutoff     =     225.0000  Ry
     convergence threshold     =      1.0E-06
     mixing beta               =       0.7000
     number of iterations used =            8  plain     mixing
     Exchange-correlation      =  SLA  PW   PBE  PBE ( 1  4  3  4 0 0)

     celldm(1)=  29.817694  celldm(2)=   0.000000  celldm(3)=   0.000000
     celldm(4)=   0.000000  celldm(5)=   0.000000  celldm(6)=   0.000000

     crystal axes: (cart. coord. in units of alat)
               a(1) = (   1.000000   0.000009  -0.000028 )  
               a(2) = (  -0.499993   0.866030   0.000028 )  
               a(3) = (  -0.000018   0.000010   0.641515 )  

     reciprocal axes: (cart. coord. in units 2 pi/alat)
               b(1) = (  0.999995  0.577336  0.000019 )  
               b(2) = ( -0.000010  1.154689 -0.000019 )  
               b(3) = (  0.000043 -0.000025  1.558809 )  


     PseudoPot. # 1 for Zn read from file:
     C:\Users\Dimas\.burai\.pseudopot/Zn.pbe-van.UPF
     MD5 check sum: 8a117cd81793830d6ad9bd6443d05479
     Pseudo is Ultrasoft, Zval = 12.0
     Generated by new atomic code, or converted to UPF format
     Using radial grid of  869 points,  6 beta functions with: 
                l(1) =   0
                l(2) =   0
                l(3) =   1
                l(4) =   1
                l(5) =   2
                l(6) =   2
     Q(r) pseudized with  8 coefficients,  rinner =    0.800   0.800   0.800
                                                       0.800   0.800

     PseudoPot. # 2 for O  read from file:
     C:\Users\Dimas\.burai\.pseudopot/O.pbe-rrkjus.UPF
     MD5 check sum: 390ba29e75625707450f3bd3f0eb6be9
     Pseudo is Ultrasoft, Zval =  6.0
     Generated by new atomic code, or converted to UPF format
     Using radial grid of 1269 points,  4 beta functions with: 
                l(1) =   0
                l(2) =   0
                l(3) =   1
                l(4) =   1
     Q(r) pseudized with 0 coefficients 


     PseudoPot. # 3 for Al read from file:
     C:\Users\Dimas\.burai\.pseudopot/Al.pbe-rrkj.UPF
     MD5 check sum: b5320f8fdc07ab0d74f109f4aa58256b
     Pseudo is Norm-conserving, Zval =  3.0
     Generated by new atomic code, or converted to UPF format
     Using radial grid of  879 points,  4 beta functions with: 
                l(1) =   0
                l(2) =   0
                l(3) =   1
                l(4) =   1

     atomic species   valence    mass     pseudopotential
        Zn            12.00    65.39000     Zn( 1.00)
        O              6.00    15.99940     O ( 1.00)
        Al             3.00    26.98154     Al( 1.00)


     Simplified LDA+U calculation (l_max = 2) with parameters (eV):
     atomic species    L          U    alpha       J0     beta
        Zn             2    10.5000   0.0000   0.0000   0.0000
        O              1     7.0000   0.0000   0.0000   0.0000



      2 Sym. Ops. (no inversion) found



   Cartesian axes

     site n.     atom                  positions (alat units)
         1           Zn  tau(   1) = (   0.0997946   0.0580684   0.1595379  )
         2           Zn  tau(   2) = (   0.0001546   0.1152630   0.6406345  )
         3           O   tau(   3) = (   0.1005726   0.0577941   0.2820346  )
         4           O   tau(   4) = (  -0.0003529   0.1159215   0.1215633  )
         5           Zn  tau(   5) = (   0.1005641   0.0579532   0.4799928  )
         6           Zn  tau(   6) = (   0.0000481   0.1154891   0.3198216  )
         7           O   tau(   7) = (   0.1006077   0.0580608   0.6023599  )
         8           O   tau(   8) = (   0.0004817   0.1158704   0.4421894  )
         9           Zn  tau(   9) = (  -0.0006315   0.2311020   0.1595300  )
        10           Zn  tau(  10) = (  -0.0995484   0.2887625   0.6404829  )
        11           O   tau(  11) = (  -0.0004929   0.2318107   0.2819696  )
        12           O   tau(  12) = (  -0.1017444   0.2890460   0.1216151  )
        13           Zn  tau(  13) = (   0.0003081   0.2311254   0.4801715  )
        14           Zn  tau(  14) = (  -0.1006300   0.2886734   0.3204610  )
        15           O   tau(  15) = (   0.0003357   0.2313352   0.6026253  )
        16           O   tau(  16) = (  -0.1003199   0.2894019   0.4427737  )
        17           Zn  tau(  17) = (  -0.0995050   0.4038334   0.1600622  )
        18           Zn  tau(  18) = (  -0.1995774   0.4621962   0.6414007  )
        19           O   tau(  19) = (  -0.1003994   0.4052349   0.2824332  )
        20           O   tau(  20) = (  -0.2007355   0.4609555   0.1228786  )
        21           Zn  tau(  21) = (  -0.0993729   0.4044136   0.4811740  )
        22           Zn  tau(  22) = (  -0.2003660   0.4616325   0.3209144  )
        23           O   tau(  23) = (  -0.0994398   0.4050071   0.6034090  )
        24           O   tau(  24) = (  -0.1999119   0.4625221   0.4427632  )
        25           Zn  tau(  25) = (  -0.2002500   0.5764063   0.1599818  )
        26           Zn  tau(  26) = (  -0.2999236   0.6351970   0.0004522  )
        27           O   tau(  27) = (  -0.1918835   0.5815231   0.2853415  )
        28           O   tau(  28) = (  -0.2993075   0.6340688   0.1231272  )
        29           Zn  tau(  29) = (  -0.1998440   0.5775009   0.4818006  )
        30           Zn  tau(  30) = (  -0.2999045   0.6354897   0.3203586  )
        31           O   tau(  31) = (  -0.1990284   0.5778458   0.6030502  )
        32           O   tau(  32) = (  -0.2987254   0.6348898   0.4422041  )
        33           Zn  tau(  33) = (  -0.3003320   0.7507562   0.1593382  )
        34           Zn  tau(  34) = (  -0.4003559   0.8085051   0.6406606  )
        35           O   tau(  35) = (  -0.2989329   0.7499485   0.2817746  )
        36           O   tau(  36) = (  -0.3999860   0.8082915   0.1216285  )
        37           Zn  tau(  37) = (  -0.3002465   0.7507068   0.4814995  )
        38           Zn  tau(  38) = (  -0.3997905   0.8081786   0.3198927  )
        39           O   tau(  39) = (  -0.2995134   0.7502836   0.6036254  )
        40           O   tau(  40) = (  -0.3995749   0.8080541   0.4423137  )
        41           Zn  tau(  41) = (   0.3003196   0.0583195   0.1593912  )
        42           Zn  tau(  42) = (   0.1997761   0.1158527   0.6412474  )
        43           O   tau(  43) = (   0.3016036   0.0565089   0.2819988  )
        44           O   tau(  44) = (   0.2006941   0.1164567   0.1221864  )
        45           Zn  tau(  45) = (   0.2998226   0.0566325   0.4813318  )
        46           Zn  tau(  46) = (   0.2005546   0.1146810   0.3196185  )
        47           O   tau(  47) = (   0.3002122   0.0575854   0.6034962  )
        48           O   tau(  48) = (   0.2016877   0.1166827   0.4421473  )
        49           Zn  tau(  49) = (   0.2006010   0.2314528   0.1604873  )
        50           Zn  tau(  50) = (   0.0997485   0.2884387   0.0002399  )
        51           O   tau(  51) = (   0.2011781   0.2314902   0.2832695  )
        52           O   tau(  52) = (   0.1004686   0.2890512   0.1226474  )
        53           Zn  tau(  53) = (   0.1994131   0.2308742   0.4807613  )
        54           Zn  tau(  54) = (   0.0996001   0.2887443   0.3195490  )
        55           O   tau(  55) = (   0.2007497   0.2321129   0.6026807  )
        56           O   tau(  56) = (   0.1009797   0.2899899   0.4420059  )
        57           Zn  tau(  57) = (   0.1006525   0.4040300   0.1606218  )
        58           Zn  tau(  58) = (   0.0006424   0.4619365   0.0004661  )
        59           O   tau(  59) = (   0.0998831   0.4061139   0.2834053  )
        60           O   tau(  60) = (   0.0006030   0.4623403   0.1232015  )
        61           Zn  tau(  61) = (   0.0995571   0.4042750   0.4812711  )
        62           Zn  tau(  62) = (  -0.0006735   0.4619590   0.3205220  )
        63           O   tau(  63) = (   0.1008087   0.4045021   0.6030057  )
        64           O   tau(  64) = (   0.0010966   0.4632262   0.4424561  )
        65           Zn  tau(  65) = (   0.0003700   0.5771458   0.1602309  )
        66           Zn  tau(  66) = (  -0.1000321   0.6351130   0.0022698  )
        67           O   tau(  67) = (  -0.0081085   0.5820409   0.2855070  )
        68           O   tau(  68) = (  -0.0999830   0.6350847   0.1243900  )
        69           Zn  tau(  69) = (  -0.0007490   0.5777919   0.4821960  )
        70           Al  tau(  70) = (  -0.1001880   0.6352030   0.3202549  )
        71           O   tau(  71) = (  -0.0007974   0.5778198   0.6032641  )
        72           O   tau(  72) = (  -0.0999061   0.6350403   0.4325207  )
        73           Zn  tau(  73) = (  -0.0992995   0.7512576   0.1599818  )
        74           Zn  tau(  74) = (  -0.2000506   0.8081821   0.0004522  )
        75           O   tau(  75) = (  -0.0995476   0.7414536   0.2853415  )
        76           O   tau(  76) = (  -0.1987655   0.8082127   0.1231272  )
        77           Zn  tau(  77) = (  -0.1000445   0.7503587   0.4818006  )
        78           Zn  tau(  78) = (  -0.2002945   0.8080192   0.3203586  )
        79           O   tau(  79) = (  -0.0999354   0.7494799   0.6030502  )
        80           O   tau(  80) = (  -0.1991854   0.8072981   0.4422041  )
        81           Zn  tau(  81) = (   0.4999805   0.0583282   0.1598847  )
        82           Zn  tau(  82) = (   0.3994226   0.1158501   0.6410057  )
        83           O   tau(  83) = (   0.4995811   0.0575507   0.2820370  )
        84           O   tau(  84) = (   0.4010846   0.1169183   0.1219319  )
        85           Zn  tau(  85) = (   0.4994956   0.0575418   0.4815842  )
        86           Zn  tau(  86) = (   0.3997885   0.1153046   0.3214297  )
        87           O   tau(  87) = (   0.5000262   0.0578521   0.6042278  )
        88           O   tau(  88) = (   0.3994701   0.1168308   0.4435852  )
        89           Zn  tau(  89) = (   0.3998420   0.2311427   0.1610457  )
        90           Zn  tau(  90) = (   0.2994635   0.2891072   0.0004325  )
        91           O   tau(  91) = (   0.4008151   0.2312269   0.2832460  )
        92           O   tau(  92) = (   0.3018101   0.2900567   0.1218566  )
        93           Zn  tau(  93) = (   0.4001976   0.2311262   0.4819721  )
        94           Zn  tau(  94) = (   0.3005155   0.2878913   0.3210830  )
        95           O   tau(  95) = (   0.3999447   0.2324679   0.6040467  )
        96           O   tau(  96) = (   0.3006066   0.2978536   0.4461768  )
        97           Zn  tau(  97) = (   0.2997099   0.4043218   0.1630540  )
        98           Zn  tau(  98) = (   0.2001119   0.4618247   0.0003393  )
        99           O   tau(  99) = (   0.3003980   0.4039246   0.2849317  )
       100           O   tau( 100) = (   0.2012576   0.4611633   0.1216748  )
       101           Al  tau( 101) = (   0.2999501   0.4041832   0.4809884  )
       102           Zn  tau( 102) = (   0.2000880   0.4618386   0.3211919  )
       103           O   tau( 103) = (   0.2999769   0.4041677   0.5931253  )
       104           O   tau( 104) = (   0.2079565   0.4572957   0.4461633  )
       105           Zn  tau( 105) = (   0.2004340   0.5768566   0.1606218  )
       106           Zn  tau( 106) = (   0.1002804   0.6345145   0.0004661  )
       107           O   tau( 107) = (   0.1982445   0.5764809   0.2834053  )
       108           O   tau( 108) = (   0.0999110   0.6343468   0.1232015  )
       109           Zn  tau( 109) = (   0.1996740   0.5776827   0.4812711  )
       110           Zn  tau( 110) = (   0.0996030   0.6356429   0.3205220  )
       111           O   tau( 111) = (   0.2001031   0.5764852   0.6030057  )
       112           O   tau( 112) = (   0.0993906   0.6334763   0.4424561  )
       113           Zn  tau( 113) = (   0.1005255   0.7502963   0.1600622  )
       114           Zn  tau( 114) = (  -0.0000545   0.8077802   0.6414007  )
       115           O   tau( 115) = (   0.0988646   0.7503702   0.2824332  )
       116           O   tau( 116) = (   0.0004410   0.8094034   0.1228786  )
       117           Zn  tau( 117) = (   0.1000890   0.7498919   0.4811740  )
       118           Zn  tau( 118) = (   0.0000395   0.8087450   0.3209144  )
       119           O   tau( 119) = (   0.0995416   0.7496531   0.6034090  )
       120           O   tau( 120) = (  -0.0005039   0.8079069   0.4427632  )
       121           Zn  tau( 121) = (   0.7004690   0.0578579   0.1601928  )
       122           Zn  tau( 122) = (   0.5999956   0.1149719   0.6410957  )
       123           O   tau( 123) = (   0.6988036   0.0587605   0.2820308  )
       124           O   tau( 124) = (   0.5997931   0.1248676   0.1250956  )
       125           Zn  tau( 125) = (   0.6996226   0.0577392   0.4811186  )
       126           Zn  tau( 126) = (   0.5995360   0.1152032   0.3212452  )
       127           O   tau( 127) = (   0.6991242   0.0580322   0.6038258  )
       128           O   tau( 128) = (   0.5989047   0.1166220   0.4424775  )
       129           Al  tau( 129) = (   0.6001330   0.2308725   0.1601894  )
       130           Zn  tau( 130) = (   0.4998105   0.2887937   0.0006374  )
       131           O   tau( 131) = (   0.5999574   0.2309739   0.2724784  )
       132           O   tau( 132) = (   0.5078094   0.2841755   0.1258147  )
       133           Zn  tau( 133) = (   0.5998540   0.2310335   0.4830564  )
       134           Zn  tau( 134) = (   0.5008230   0.2882091   0.3213880  )
       135           O   tau( 135) = (   0.5995551   0.2312061   0.6051772  )
       136           O   tau( 136) = (   0.4999556   0.2887099   0.4426248  )
       137           Zn  tau( 137) = (   0.4997535   0.4041945   0.1610457  )
       138           Zn  tau( 138) = (   0.3993654   0.4621426   0.0004325  )
       139           O   tau( 139) = (   0.5001671   0.4033096   0.2832460  )
       140           O   tau( 140) = (   0.3997165   0.4596356   0.1218566  )
       141           Zn  tau( 141) = (   0.4999455   0.4038948   0.4819721  )
       142           Zn  tau( 142) = (   0.4009445   0.4618394   0.3210830  )
       143           O   tau( 143) = (   0.4986571   0.4034429   0.6040467  )
       144           O   tau( 144) = (   0.3923625   0.4567794   0.4461768  )
       145           Zn  tau( 145) = (   0.3998645   0.5765872   0.1604873  )
       146           Zn  tau( 146) = (   0.3000869   0.6354351   0.0002399  )
       147           O   tau( 147) = (   0.4001205   0.5760687   0.2832695  )
       148           O   tau( 148) = (   0.2999165   0.6345052   0.1226474  )
       149           Zn  tau( 149) = (   0.3997716   0.5779053   0.4807613  )
       150           Zn  tau( 150) = (   0.2997480   0.6354108   0.3195490  )
       151           O   tau( 151) = (   0.3993671   0.5761284   0.6026807  )
       152           O   tau( 152) = (   0.2993591   0.6335932   0.4420059  )
       153           Zn  tau( 153) = (   0.2995520   0.7510350   0.1595300  )
       154           Zn  tau( 154) = (   0.2001581   0.8078693   0.6404829  )
       155           O   tau( 155) = (   0.2990076   0.7505607   0.2819696  )
       156           O   tau( 156) = (   0.1988145   0.8096294   0.1216151  )
       157           Zn  tau( 157) = (   0.3000015   0.7502097   0.4801715  )
       158           Zn  tau( 158) = (   0.1996945   0.8088506   0.3204610  )
       159           O   tau( 159) = (   0.2998336   0.7500809   0.6026253  )
       160           O   tau( 160) = (   0.1992186   0.8082178   0.4427737  )
       161           Zn  tau( 161) = (   0.8997025   0.0579159   0.1595663  )
       162           Zn  tau( 162) = (   0.8005846   0.1151417   0.6404640  )
       163           O   tau( 163) = (   0.8994606   0.0580556   0.2819636  )
       164           O   tau( 164) = (   0.7988681   0.1161327   0.1214217  )
       165           Zn  tau( 165) = (   0.9003626   0.0575348   0.4800905  )
       166           Zn  tau( 166) = (   0.8000625   0.1154431   0.3210112  )
       167           O   tau( 167) = (   0.9000262   0.0577290   0.6024666  )
       168           O   tau( 168) = (   0.7992941   0.1158867   0.4431853  )
       169           Zn  tau( 169) = (   0.8001360   0.2304862   0.1601928  )
       170           Zn  tau( 170) = (   0.7004371   0.2889417   0.6410957  )
       171           O   tau( 171) = (   0.7985216   0.2314771   0.2820308  )
       172           O   tau( 172) = (   0.6917659   0.2841693   0.1250956  )
       173           Zn  tau( 173) = (   0.7998156   0.2312786   0.4811186  )
       174           Zn  tau( 174) = (   0.7000070   0.2892241   0.3212452  )
       175           O   tau( 175) = (   0.7993127   0.2315637   0.6038258  )
       176           O   tau( 176) = (   0.6984626   0.2890615   0.4424775  )
       177           Zn  tau( 177) = (   0.6994845   0.4038792   0.1598847  )
       178           Zn  tau( 178) = (   0.5993901   0.4622039   0.6410057  )
       179           O   tau( 179) = (   0.6999581   0.4046138   0.2820370  )
       180           O   tau( 180) = (   0.5992960   0.4602306   0.1219319  )
       181           Zn  tau( 181) = (   0.6999230   0.4046924   0.4815842  )
       182           Zn  tau( 182) = (   0.6000455   0.4621598   0.3214297  )
       183           O   tau( 183) = (   0.6999196   0.4040777   0.6042278  )
       184           O   tau( 184) = (   0.5985646   0.4616725   0.4435852  )
       185           Zn  tau( 185) = (   0.5996615   0.5767950   0.1593912  )
       186           Zn  tau( 186) = (   0.4995646   0.6351016   0.6412474  )
       187           O   tau( 187) = (   0.6018716   0.5765883   0.2819988  )
       188           O   tau( 188) = (   0.4995005   0.6340046   0.1221864  )
       189           Zn  tau( 189) = (   0.6008740   0.5780689   0.4813318  )
       190           Zn  tau( 190) = (   0.5009685   0.6350133   0.3196185  )
       191           O   tau( 191) = (   0.6002436   0.5772551   0.6034962  )
       192           O   tau( 192) = (   0.4998016   0.6330312   0.4421473  )
       193           Zn  tau( 193) = (   0.4996165   0.7505803   0.1595379  )
       194           Zn  tau( 194) = (   0.4002646   0.8082738   0.6406345  )
       195           O   tau( 195) = (   0.5002431   0.7500436   0.2820346  )
       196           O   tau( 196) = (   0.3994405   0.8083840   0.1215633  )
       197           Zn  tau( 197) = (   0.5001010   0.7499715   0.4799928  )
       198           Zn  tau( 198) = (   0.4000155   0.8082530   0.3198216  )
       199           O   tau( 199) = (   0.5000296   0.7498799   0.6023599  )
       200           O   tau( 200) = (   0.3999021   0.8076868   0.4421894  )

     number of k points=     1
                       cart. coord. in units 2pi/alat
        k(    1) = (   0.0000000   0.0000000   0.0000000), wk =   2.0000000

     Dense  grid:   419806 G-vectors     FFT dimensions: ( 144, 144,  96)

     Smooth grid:   124423 G-vectors     FFT dimensions: (  96,  96,  64)

     Estimated max dynamical RAM per process >     844.64MB

     Estimated total allocated dynamical RAM >    8446.37MB

     Initial potential from superposition of free atoms

     starting charge 1772.97748, renormalised to 1770.00000
     Number of +U iterations with fixed ns =  0
     Starting occupations:
 --- enter write_ns ---
 LDA+U parameters:
U( 1)     = 10.50000000
alpha( 1) =  0.00000000
U( 2)     =  7.00000000
alpha( 2) =  0.00000000
atom    1   Tr[ns(na)] =  10.00000
    eigenvalues: 
  1.000  1.000  1.000  1.000  1.000
    eigenvectors:
  1.000  0.000  0.000  0.000  0.000
  0.000  1.000  0.000  0.000  0.000
  0.000  0.000  1.000  0.000  0.000
  0.000  0.000  0.000  1.000  0.000
  0.000  0.000  0.000  0.000  1.000
    occupations:
  1.000  0.000  0.000  0.000  0.000
  0.000  1.000  0.000  0.000  0.000
  0.000  0.000  1.000  0.000  0.000
  0.000  0.000  0.000  1.000  0.000
  0.000  0.000  0.000  0.000  1.000
atom    2   Tr[ns(na)] =  10.00000
    eigenvalues: 
  1.000  1.000  1.000  1.000  1.000
    eigenvectors:
  1.000  0.000  0.000  0.000  0.000
  0.000  1.000  0.000  0.000  0.000
  0.000  0.000  1.000  0.000  0.000
  0.000  0.000  0.000  1.000  0.000
  0.000  0.000  0.000  0.000  1.000
    occupations:
  1.000  0.000  0.000  0.000  0.000
  0.000  1.000  0.000  0.000  0.000
  0.000  0.000  1.000  0.000  0.000
  0.000  0.000  0.000  1.000  0.000
  0.000  0.000  0.000  0.000  1.000
atom    3   Tr[ns(na)] =   4.00000
    eigenvalues: 
  0.667  0.667  0.667
    eigenvectors:
  1.000  0.000  0.000
  0.000  1.000  0.000
  0.000  0.000  1.000
    occupations:
  0.667  0.000  0.000
  0.000  0.667  0.000
  0.000  0.000  0.667
atom    4   Tr[ns(na)] =   4.00000
    eigenvalues: 
  0.667  0.667  0.667
    eigenvectors:
  1.000  0.000  0.000
  0.000  1.000  0.000
  0.000  0.000  1.000
    occupations:
  0.667  0.000  0.000
  0.000  0.667  0.000
  0.000  0.000  0.667
atom    5   Tr[ns(na)] =  10.00000
    eigenvalues: 
  1.000  1.000  1.000  1.000  1.000
    eigenvectors:
  1.000  0.000  0.000  0.000  0.000
  0.000  1.000  0.000  0.000  0.000
  0.000  0.000  1.000  0.000  0.000
  0.000  0.000  0.000  1.000  0.000
  0.000  0.000  0.000  0.000  1.000
    occupations:
  1.000  0.000  0.000  0.000  0.000
  0.000  1.000  0.000  0.000  0.000
  0.000  0.000  1.000  0.000  0.000
  0.000  0.000  0.000  1.000  0.000
  0.000  0.000  0.000  0.000  1.000
atom    6   Tr[ns(na)] =  10.00000
    eigenvalues: 
  1.000  1.000  1.000  1.000  1.000
    eigenvectors:
  1.000  0.000  0.000  0.000  0.000
  0.000  1.000  0.000  0.000  0.000
  0.000  0.000  1.000  0.000  0.000
  0.000  0.000  0.000  1.000  0.000
  0.000  0.000  0.000  0.000  1.000
    occupations:
  1.000  0.000  0.000  0.000  0.000
  0.000  1.000  0.000  0.000  0.000
  0.000  0.000  1.000  0.000  0.000
  0.000  0.000  0.000  1.000  0.000
  0.000  0.000  0.000  0.000  1.000
atom    7   Tr[ns(na)] =   4.00000
    eigenvalues: 
  0.667  0.667  0.667
    eigenvectors:
  1.000  0.000  0.000
  0.000  1.000  0.000
  0.000  0.000  1.000
    occupations:
  0.667  0.000  0.000
  0.000  0.667  0.000
  0.000  0.000  0.667
atom    8   Tr[ns(na)] =   4.00000
    eigenvalues: 
  0.667  0.667  0.667
    eigenvectors:
  1.000  0.000  0.000
  0.000  1.000  0.000
  0.000  0.000  1.000
    occupations:
  0.667  0.000  0.000
  0.000  0.667  0.000
  0.000  0.000  0.667
atom    9   Tr[ns(na)] =  10.00000
    eigenvalues: 
  1.000  1.000  1.000  1.000  1.000
    eigenvectors:
  1.000  0.000  0.000  0.000  0.000
  0.000  1.000  0.000  0.000  0.000
  0.000  0.000  1.000  0.000  0.000
  0.000  0.000  0.000  1.000  0.000
  0.000  0.000  0.000  0.000  1.000
    occupations:
  1.000  0.000  0.000  0.000  0.000
  0.000  1.000  0.000  0.000  0.000
  0.000  0.000  1.000  0.000  0.000
  0.000  0.000  0.000  1.000  0.000
  0.000  0.000  0.000  0.000  1.000
atom   10   Tr[ns(na)] =  10.00000
    eigenvalues: 
  1.000  1.000  1.000  1.000  1.000
    eigenvectors:
  1.000  0.000  0.000  0.000  0.000
  0.000  1.000  0.000  0.000  0.000
  0.000  0.000  1.000  0.000  0.000
  0.000  0.000  0.000  1.000  0.000
  0.000  0.000  0.000  0.000  1.000
    occupations:
  1.000  0.000  0.000  0.000  0.000
  0.000  1.000  0.000  0.000  0.000
  0.000  0.000  1.000  0.000  0.000
  0.000  0.000  0.000  1.000  0.000
  0.000  0.000  0.000  0.000  1.000
atom   11   Tr[ns(na)] =   4.00000
    eigenvalues: 
  0.667  0.667  0.667
    eigenvectors:
  1.000  0.000  0.000
  0.000  1.000  0.000
  0.000  0.000  1.000
    occupations:
  0.667  0.000  0.000
  0.000  0.667  0.000
  0.000  0.000  0.667
atom   12   Tr[ns(na)] =   4.00000
    eigenvalues: 
  0.667  0.667  0.667
    eigenvectors:
  1.000  0.000  0.000
  0.000  1.000  0.000
  0.000  0.000  1.000
    occupations:
  0.667  0.000  0.000
  0.000  0.667  0.000
  0.000  0.000  0.667
atom   13   Tr[ns(na)] =  10.00000
    eigenvalues: 
  1.000  1.000  1.000  1.000  1.000
    eigenvectors:
  1.000  0.000  0.000  0.000  0.000
  0.000  1.000  0.000  0.000  0.000
  0.000  0.000  1.000  0.000  0.000
  0.000  0.000  0.000  1.000  0.000
  0.000  0.000  0.000  0.000  1.000
    occupations:
  1.000  0.000  0.000  0.000  0.000
  0.000  1.000  0.000  0.000  0.000
  0.000  0.000  1.000  0.000  0.000
  0.000  0.000  0.000  1.000  0.000
  0.000  0.000  0.000  0.000  1.000
atom   14   Tr[ns(na)] =  10.00000
    eigenvalues: 
  1.000  1.000  1.000  1.000  1.000
    eigenvectors:
  1.000  0.000  0.000  0.000  0.000
  0.000  1.000  0.000  0.000  0.000
  0.000  0.000  1.000  0.000  0.000
  0.000  0.000  0.000  1.000  0.000
  0.000  0.000  0.000  0.000  1.000
    occupations:
  1.000  0.000  0.000  0.000  0.000
  0.000  1.000  0.000  0.000  0.000
  0.000  0.000  1.000  0.000  0.000
  0.000  0.000  0.000  1.000  0.000
  0.000  0.000  0.000  0.000  1.000
atom   15   Tr[ns(na)] =   4.00000
    eigenvalues: 
  0.667  0.667  0.667
    eigenvectors:
  1.000  0.000  0.000
  0.000  1.000  0.000
  0.000  0.000  1.000
    occupations:
  0.667  0.000  0.000
  0.000  0.667  0.000
  0.000  0.000  0.667
atom   16   Tr[ns(na)] =   4.00000
    eigenvalues: 
  0.667  0.667  0.667
    eigenvectors:
  1.000  0.000  0.000
  0.000  1.000  0.000
  0.000  0.000  1.000
    occupations:
  0.667  0.000  0.000
  0.000  0.667  0.000
  0.000  0.000  0.667
atom   17   Tr[ns(na)] =  10.00000
    eigenvalues: 
  1.000  1.000  1.000  1.000  1.000
    eigenvectors:
  1.000  0.000  0.000  0.000  0.000
  0.000  1.000  0.000  0.000  0.000
  0.000  0.000  1.000  0.000  0.000
  0.000  0.000  0.000  1.000  0.000
  0.000  0.000  0.000  0.000  1.000
    occupations:
  1.000  0.000  0.000  0.000  0.000
  0.000  1.000  0.000  0.000  0.000
  0.000  0.000  1.000  0.000  0.000
  0.000  0.000  0.000  1.000  0.000
  0.000  0.000  0.000  0.000  1.000
atom   18   Tr[ns(na)] =  10.00000
    eigenvalues: 
  1.000  1.000  1.000  1.000  1.000
    eigenvectors:
  1.000  0.000  0.000  0.000  0.000
  0.000  1.000  0.000  0.000  0.000
  0.000  0.000  1.000  0.000  0.000
  0.000  0.000  0.000  1.000  0.000
  0.000  0.000  0.000  0.000  1.000
    occupations:
  1.000  0.000  0.000  0.000  0.000
  0.000  1.000  0.000  0.000  0.000
  0.000  0.000  1.000  0.000  0.000
  0.000  0.000  0.000  1.000  0.000
  0.000  0.000  0.000  0.000  1.000
atom   19   Tr[ns(na)] =   4.00000
    eigenvalues: 
  0.667  0.667  0.667
    eigenvectors:
  1.000  0.000  0.000
  0.000  1.000  0.000
  0.000  0.000  1.000
    occupations:
  0.667  0.000  0.000
  0.000  0.667  0.000
  0.000  0.000  0.667
atom   20   Tr[ns(na)] =   4.00000
    eigenvalues: 
  0.667  0.667  0.667
    eigenvectors:
  1.000  0.000  0.000
  0.000  1.000  0.000
  0.000  0.000  1.000
    occupations:
  0.667  0.000  0.000
  0.000  0.667  0.000
  0.000  0.000  0.667
atom   21   Tr[ns(na)] =  10.00000
    eigenvalues: 
  1.000  1.000  1.000  1.000  1.000
    eigenvectors:
  1.000  0.000  0.000  0.000  0.000
  0.000  1.000  0.000  0.000  0.000
  0.000  0.000  1.000  0.000  0.000
  0.000  0.000  0.000  1.000  0.000
  0.000  0.000  0.000  0.000  1.000
    occupations:
  1.000  0.000  0.000  0.000  0.000
  0.000  1.000  0.000  0.000  0.000
  0.000  0.000  1.000  0.000  0.000
  0.000  0.000  0.000  1.000  0.000
  0.000  0.000  0.000  0.000  1.000
atom   22   Tr[ns(na)] =  10.00000
    eigenvalues: 
  1.000  1.000  1.000  1.000  1.000
    eigenvectors:
  1.000  0.000  0.000  0.000  0.000
  0.000  1.000  0.000  0.000  0.000
  0.000  0.000  1.000  0.000  0.000
  0.000  0.000  0.000  1.000  0.000
  0.000  0.000  0.000  0.000  1.000
    occupations:
  1.000  0.000  0.000  0.000  0.000
  0.000  1.000  0.000  0.000  0.000
  0.000  0.000  1.000  0.000  0.000
  0.000  0.000  0.000  1.000  0.000
  0.000  0.000  0.000  0.000  1.000
atom   23   Tr[ns(na)] =   4.00000
    eigenvalues: 
  0.667  0.667  0.667
    eigenvectors:
  1.000  0.000  0.000
  0.000  1.000  0.000
  0.000  0.000  1.000
    occupations:
  0.667  0.000  0.000
  0.000  0.667  0.000
  0.000  0.000  0.667
atom   24   Tr[ns(na)] =   4.00000
    eigenvalues: 
  0.667  0.667  0.667
    eigenvectors:
  1.000  0.000  0.000
  0.000  1.000  0.000
  0.000  0.000  1.000
    occupations:
  0.667  0.000  0.000
  0.000  0.667  0.000
  0.000  0.000  0.667
atom   25   Tr[ns(na)] =  10.00000
    eigenvalues: 
  1.000  1.000  1.000  1.000  1.000
    eigenvectors:
  1.000  0.000  0.000  0.000  0.000
  0.000  1.000  0.000  0.000  0.000
  0.000  0.000  1.000  0.000  0.000
  0.000  0.000  0.000  1.000  0.000
  0.000  0.000  0.000  0.000  1.000
    occupations:
  1.000  0.000  0.000  0.000  0.000
  0.000  1.000  0.000  0.000  0.000
  0.000  0.000  1.000  0.000  0.000
  0.000  0.000  0.000  1.000  0.000
  0.000  0.000  0.000  0.000  1.000
atom   26   Tr[ns(na)] =  10.00000
    eigenvalues: 
  1.000  1.000  1.000  1.000  1.000
    eigenvectors:
  1.000  0.000  0.000  0.000  0.000
  0.000  1.000  0.000  0.000  0.000
  0.000  0.000  1.000  0.000  0.000
  0.000  0.000  0.000  1.000  0.000
  0.000  0.000  0.000  0.000  1.000
    occupations:
  1.000  0.000  0.000  0.000  0.000
  0.000  1.000  0.000  0.000  0.000
  0.000  0.000  1.000  0.000  0.000
  0.000  0.000  0.000  1.000  0.000
  0.000  0.000  0.000  0.000  1.000
atom   27   Tr[ns(na)] =   4.00000
    eigenvalues: 
  0.667  0.667  0.667
    eigenvectors:
  1.000  0.000  0.000
  0.000  1.000  0.000
  0.000  0.000  1.000
    occupations:
  0.667  0.000  0.000
  0.000  0.667  0.000
  0.000  0.000  0.667
atom   28   Tr[ns(na)] =   4.00000
    eigenvalues: 
  0.667  0.667  0.667
    eigenvectors:
  1.000  0.000  0.000
  0.000  1.000  0.000
  0.000  0.000  1.000
    occupations:
  0.667  0.000  0.000
  0.000  0.667  0.000
  0.000  0.000  0.667
atom   29   Tr[ns(na)] =  10.00000
    eigenvalues: 
  1.000  1.000  1.000  1.000  1.000
    eigenvectors:
  1.000  0.000  0.000  0.000  0.000
  0.000  1.000  0.000  0.000  0.000
  0.000  0.000  1.000  0.000  0.000
  0.000  0.000  0.000  1.000  0.000
  0.000  0.000  0.000  0.000  1.000
    occupations:
  1.000  0.000  0.000  0.000  0.000
  0.000  1.000  0.000  0.000  0.000
  0.000  0.000  1.000  0.000  0.000
  0.000  0.000  0.000  1.000  0.000
  0.000  0.000  0.000  0.000  1.000
atom   30   Tr[ns(na)] =  10.00000
    eigenvalues: 
  1.000  1.000  1.000  1.000  1.000
    eigenvectors:
  1.000  0.000  0.000  0.000  0.000
  0.000  1.000  0.000  0.000  0.000
  0.000  0.000  1.000  0.000  0.000
  0.000  0.000  0.000  1.000  0.000
  0.000  0.000  0.000  0.000  1.000
    occupations:
  1.000  0.000  0.000  0.000  0.000
  0.000  1.000  0.000  0.000  0.000
  0.000  0.000  1.000  0.000  0.000
  0.000  0.000  0.000  1.000  0.000
  0.000  0.000  0.000  0.000  1.000
atom   31   Tr[ns(na)] =   4.00000
    eigenvalues: 
  0.667  0.667  0.667
    eigenvectors:
  1.000  0.000  0.000
  0.000  1.000  0.000
  0.000  0.000  1.000
    occupations:
  0.667  0.000  0.000
  0.000  0.667  0.000
  0.000  0.000  0.667
atom   32   Tr[ns(na)] =   4.00000
    eigenvalues: 
  0.667  0.667  0.667
    eigenvectors:
  1.000  0.000  0.000
  0.000  1.000  0.000
  0.000  0.000  1.000
    occupations:
  0.667  0.000  0.000
  0.000  0.667  0.000
  0.000  0.000  0.667
atom   33   Tr[ns(na)] =  10.00000
    eigenvalues: 
  1.000  1.000  1.000  1.000  1.000
    eigenvectors:
  1.000  0.000  0.000  0.000  0.000
  0.000  1.000  0.000  0.000  0.000
  0.000  0.000  1.000  0.000  0.000
  0.000  0.000  0.000  1.000  0.000
  0.000  0.000  0.000  0.000  1.000
    occupations:
  1.000  0.000  0.000  0.000  0.000
  0.000  1.000  0.000  0.000  0.000
  0.000  0.000  1.000  0.000  0.000
  0.000  0.000  0.000  1.000  0.000
  0.000  0.000  0.000  0.000  1.000
atom   34   Tr[ns(na)] =  10.00000
    eigenvalues: 
  1.000  1.000  1.000  1.000  1.000
    eigenvectors:
  1.000  0.000  0.000  0.000  0.000
  0.000  1.000  0.000  0.000  0.000
  0.000  0.000  1.000  0.000  0.000
  0.000  0.000  0.000  1.000  0.000
  0.000  0.000  0.000  0.000  1.000
    occupations:
  1.000  0.000  0.000  0.000  0.000
  0.000  1.000  0.000  0.000  0.000
  0.000  0.000  1.000  0.000  0.000
  0.000  0.000  0.000  1.000  0.000
  0.000  0.000  0.000  0.000  1.000
atom   35   Tr[ns(na)] =   4.00000
    eigenvalues: 
  0.667  0.667  0.667
    eigenvectors:
  1.000  0.000  0.000
  0.000  1.000  0.000
  0.000  0.000  1.000
    occupations:
  0.667  0.000  0.000
  0.000  0.667  0.000
  0.000  0.000  0.667
atom   36   Tr[ns(na)] =   4.00000
    eigenvalues: 
  0.667  0.667  0.667
    eigenvectors:
  1.000  0.000  0.000
  0.000  1.000  0.000
  0.000  0.000  1.000
    occupations:
  0.667  0.000  0.000
  0.000  0.667  0.000
  0.000  0.000  0.667
atom   37   Tr[ns(na)] =  10.00000
    eigenvalues: 
  1.000  1.000  1.000  1.000  1.000
    eigenvectors:
  1.000  0.000  0.000  0.000  0.000
  0.000  1.000  0.000  0.000  0.000
  0.000  0.000  1.000  0.000  0.000
  0.000  0.000  0.000  1.000  0.000
  0.000  0.000  0.000  0.000  1.000
    occupations:
  1.000  0.000  0.000  0.000  0.000
  0.000  1.000  0.000  0.000  0.000
  0.000  0.000  1.000  0.000  0.000
  0.000  0.000  0.000  1.000  0.000
  0.000  0.000  0.000  0.000  1.000
atom   38   Tr[ns(na)] =  10.00000
    eigenvalues: 
  1.000  1.000  1.000  1.000  1.000
    eigenvectors:
  1.000  0.000  0.000  0.000  0.000
  0.000  1.000  0.000  0.000  0.000
  0.000  0.000  1.000  0.000  0.000
  0.000  0.000  0.000  1.000  0.000
  0.000  0.000  0.000  0.000  1.000
    occupations:
  1.000  0.000  0.000  0.000  0.000
  0.000  1.000  0.000  0.000  0.000
  0.000  0.000  1.000  0.000  0.000
  0.000  0.000  0.000  1.000  0.000
  0.000  0.000  0.000  0.000  1.000
atom   39   Tr[ns(na)] =   4.00000
    eigenvalues: 
  0.667  0.667  0.667
    eigenvectors:
  1.000  0.000  0.000
  0.000  1.000  0.000
  0.000  0.000  1.000
    occupations:
  0.667  0.000  0.000
  0.000  0.667  0.000
  0.000  0.000  0.667
atom   40   Tr[ns(na)] =   4.00000
    eigenvalues: 
  0.667  0.667  0.667
    eigenvectors:
  1.000  0.000  0.000
  0.000  1.000  0.000
  0.000  0.000  1.000
    occupations:
  0.667  0.000  0.000
  0.000  0.667  0.000
  0.000  0.000  0.667
atom   41   Tr[ns(na)] =  10.00000
    eigenvalues: 
  1.000  1.000  1.000  1.000  1.000
    eigenvectors:
  1.000  0.000  0.000  0.000  0.000
  0.000  1.000  0.000  0.000  0.000
  0.000  0.000  1.000  0.000  0.000
  0.000  0.000  0.000  1.000  0.000
  0.000  0.000  0.000  0.000  1.000
    occupations:
  1.000  0.000  0.000  0.000  0.000
  0.000  1.000  0.000  0.000  0.000
  0.000  0.000  1.000  0.000  0.000
  0.000  0.000  0.000  1.000  0.000
  0.000  0.000  0.000  0.000  1.000
atom   42   Tr[ns(na)] =  10.00000
    eigenvalues: 
  1.000  1.000  1.000  1.000  1.000
    eigenvectors:
  1.000  0.000  0.000  0.000  0.000
  0.000  1.000  0.000  0.000  0.000
  0.000  0.000  1.000  0.000  0.000
  0.000  0.000  0.000  1.000  0.000
  0.000  0.000  0.000  0.000  1.000
    occupations:
  1.000  0.000  0.000  0.000  0.000
  0.000  1.000  0.000  0.000  0.000
  0.000  0.000  1.000  0.000  0.000
  0.000  0.000  0.000  1.000  0.000
  0.000  0.000  0.000  0.000  1.000
atom   43   Tr[ns(na)] =   4.00000
    eigenvalues: 
  0.667  0.667  0.667
    eigenvectors:
  1.000  0.000  0.000
  0.000  1.000  0.000
  0.000  0.000  1.000
    occupations:
  0.667  0.000  0.000
  0.000  0.667  0.000
  0.000  0.000  0.667
atom   44   Tr[ns(na)] =   4.00000
    eigenvalues: 
  0.667  0.667  0.667
    eigenvectors:
  1.000  0.000  0.000
  0.000  1.000  0.000
  0.000  0.000  1.000
    occupations:
  0.667  0.000  0.000
  0.000  0.667  0.000
  0.000  0.000  0.667
atom   45   Tr[ns(na)] =  10.00000
    eigenvalues: 
  1.000  1.000  1.000  1.000  1.000
    eigenvectors:
  1.000  0.000  0.000  0.000  0.000
  0.000  1.000  0.000  0.000  0.000
  0.000  0.000  1.000  0.000  0.000
  0.000  0.000  0.000  1.000  0.000
  0.000  0.000  0.000  0.000  1.000
    occupations:
  1.000  0.000  0.000  0.000  0.000
  0.000  1.000  0.000  0.000  0.000
  0.000  0.000  1.000  0.000  0.000
  0.000  0.000  0.000  1.000  0.000
  0.000  0.000  0.000  0.000  1.000
atom   46   Tr[ns(na)] =  10.00000
    eigenvalues: 
  1.000  1.000  1.000  1.000  1.000
    eigenvectors:
  1.000  0.000  0.000  0.000  0.000
  0.000  1.000  0.000  0.000  0.000
  0.000  0.000  1.000  0.000  0.000
  0.000  0.000  0.000  1.000  0.000
  0.000  0.000  0.000  0.000  1.000
    occupations:
  1.000  0.000  0.000  0.000  0.000
  0.000  1.000  0.000  0.000  0.000
  0.000  0.000  1.000  0.000  0.000
  0.000  0.000  0.000  1.000  0.000
  0.000  0.000  0.000  0.000  1.000
atom   47   Tr[ns(na)] =   4.00000
    eigenvalues: 
  0.667  0.667  0.667
    eigenvectors:
  1.000  0.000  0.000
  0.000  1.000  0.000
  0.000  0.000  1.000
    occupations:
  0.667  0.000  0.000
  0.000  0.667  0.000
  0.000  0.000  0.667
atom   48   Tr[ns(na)] =   4.00000
    eigenvalues: 
  0.667  0.667  0.667
    eigenvectors:
  1.000  0.000  0.000
  0.000  1.000  0.000
  0.000  0.000  1.000
    occupations:
  0.667  0.000  0.000
  0.000  0.667  0.000
  0.000  0.000  0.667
atom   49   Tr[ns(na)] =  10.00000
    eigenvalues: 
  1.000  1.000  1.000  1.000  1.000
    eigenvectors:
  1.000  0.000  0.000  0.000  0.000
  0.000  1.000  0.000  0.000  0.000
  0.000  0.000  1.000  0.000  0.000
  0.000  0.000  0.000  1.000  0.000
  0.000  0.000  0.000  0.000  1.000
    occupations:
  1.000  0.000  0.000  0.000  0.000
  0.000  1.000  0.000  0.000  0.000
  0.000  0.000  1.000  0.000  0.000
  0.000  0.000  0.000  1.000  0.000
  0.000  0.000  0.000  0.000  1.000
atom   50   Tr[ns(na)] =  10.00000
    eigenvalues: 
  1.000  1.000  1.000  1.000  1.000
    eigenvectors:
  1.000  0.000  0.000  0.000  0.000
  0.000  1.000  0.000  0.000  0.000
  0.000  0.000  1.000  0.000  0.000
  0.000  0.000  0.000  1.000  0.000
  0.000  0.000  0.000  0.000  1.000
    occupations:
  1.000  0.000  0.000  0.000  0.000
  0.000  1.000  0.000  0.000  0.000
  0.000  0.000  1.000  0.000  0.000
  0.000  0.000  0.000  1.000  0.000
  0.000  0.000  0.000  0.000  1.000
atom   51   Tr[ns(na)] =   4.00000
    eigenvalues: 
  0.667  0.667  0.667
    eigenvectors:
  1.000  0.000  0.000
  0.000  1.000  0.000
  0.000  0.000  1.000
    occupations:
  0.667  0.000  0.000
  0.000  0.667  0.000
  0.000  0.000  0.667
atom   52   Tr[ns(na)] =   4.00000
    eigenvalues: 
  0.667  0.667  0.667
    eigenvectors:
  1.000  0.000  0.000
  0.000  1.000  0.000
  0.000  0.000  1.000
    occupations:
  0.667  0.000  0.000
  0.000  0.667  0.000
  0.000  0.000  0.667
atom   53   Tr[ns(na)] =  10.00000
    eigenvalues: 
  1.000  1.000  1.000  1.000  1.000
    eigenvectors:
  1.000  0.000  0.000  0.000  0.000
  0.000  1.000  0.000  0.000  0.000
  0.000  0.000  1.000  0.000  0.000
  0.000  0.000  0.000  1.000  0.000
  0.000  0.000  0.000  0.000  1.000
    occupations:
  1.000  0.000  0.000  0.000  0.000
  0.000  1.000  0.000  0.000  0.000
  0.000  0.000  1.000  0.000  0.000
  0.000  0.000  0.000  1.000  0.000
  0.000  0.000  0.000  0.000  1.000
atom   54   Tr[ns(na)] =  10.00000
    eigenvalues: 
  1.000  1.000  1.000  1.000  1.000
    eigenvectors:
  1.000  0.000  0.000  0.000  0.000
  0.000  1.000  0.000  0.000  0.000
  0.000  0.000  1.000  0.000  0.000
  0.000  0.000  0.000  1.000  0.000
  0.000  0.000  0.000  0.000  1.000
    occupations:
  1.000  0.000  0.000  0.000  0.000
  0.000  1.000  0.000  0.000  0.000
  0.000  0.000  1.000  0.000  0.000
  0.000  0.000  0.000  1.000  0.000
  0.000  0.000  0.000  0.000  1.000
atom   55   Tr[ns(na)] =   4.00000
    eigenvalues: 
  0.667  0.667  0.667
    eigenvectors:
  1.000  0.000  0.000
  0.000  1.000  0.000
  0.000  0.000  1.000
    occupations:
  0.667  0.000  0.000
  0.000  0.667  0.000
  0.000  0.000  0.667
atom   56   Tr[ns(na)] =   4.00000
    eigenvalues: 
  0.667  0.667  0.667
    eigenvectors:
  1.000  0.000  0.000
  0.000  1.000  0.000
  0.000  0.000  1.000
    occupations:
  0.667  0.000  0.000
  0.000  0.667  0.000
  0.000  0.000  0.667
atom   57   Tr[ns(na)] =  10.00000
    eigenvalues: 
  1.000  1.000  1.000  1.000  1.000
    eigenvectors:
  1.000  0.000  0.000  0.000  0.000
  0.000  1.000  0.000  0.000  0.000
  0.000  0.000  1.000  0.000  0.000
  0.000  0.000  0.000  1.000  0.000
  0.000  0.000  0.000  0.000  1.000
    occupations:
  1.000  0.000  0.000  0.000  0.000
  0.000  1.000  0.000  0.000  0.000
  0.000  0.000  1.000  0.000  0.000
  0.000  0.000  0.000  1.000  0.000
  0.000  0.000  0.000  0.000  1.000
atom   58   Tr[ns(na)] =  10.00000
    eigenvalues: 
  1.000  1.000  1.000  1.000  1.000
    eigenvectors:
  1.000  0.000  0.000  0.000  0.000
  0.000  1.000  0.000  0.000  0.000
  0.000  0.000  1.000  0.000  0.000
  0.000  0.000  0.000  1.000  0.000
  0.000  0.000  0.000  0.000  1.000
    occupations:
  1.000  0.000  0.000  0.000  0.000
  0.000  1.000  0.000  0.000  0.000
  0.000  0.000  1.000  0.000  0.000
  0.000  0.000  0.000  1.000  0.000
  0.000  0.000  0.000  0.000  1.000
atom   59   Tr[ns(na)] =   4.00000
    eigenvalues: 
  0.667  0.667  0.667
    eigenvectors:
  1.000  0.000  0.000
  0.000  1.000  0.000
  0.000  0.000  1.000
    occupations:
  0.667  0.000  0.000
  0.000  0.667  0.000
  0.000  0.000  0.667
atom   60   Tr[ns(na)] =   4.00000
    eigenvalues: 
  0.667  0.667  0.667
    eigenvectors:
  1.000  0.000  0.000
  0.000  1.000  0.000
  0.000  0.000  1.000
    occupations:
  0.667  0.000  0.000
  0.000  0.667  0.000
  0.000  0.000  0.667
atom   61   Tr[ns(na)] =  10.00000
    eigenvalues: 
  1.000  1.000  1.000  1.000  1.000
    eigenvectors:
  1.000  0.000  0.000  0.000  0.000
  0.000  1.000  0.000  0.000  0.000
  0.000  0.000  1.000  0.000  0.000
  0.000  0.000  0.000  1.000  0.000
  0.000  0.000  0.000  0.000  1.000
    occupations:
  1.000  0.000  0.000  0.000  0.000
  0.000  1.000  0.000  0.000  0.000
  0.000  0.000  1.000  0.000  0.000
  0.000  0.000  0.000  1.000  0.000
  0.000  0.000  0.000  0.000  1.000
atom   62   Tr[ns(na)] =  10.00000
    eigenvalues: 
  1.000  1.000  1.000  1.000  1.000
    eigenvectors:
  1.000  0.000  0.000  0.000  0.000
  0.000  1.000  0.000  0.000  0.000
  0.000  0.000  1.000  0.000  0.000
  0.000  0.000  0.000  1.000  0.000
  0.000  0.000  0.000  0.000  1.000
    occupations:
  1.000  0.000  0.000  0.000  0.000
  0.000  1.000  0.000  0.000  0.000
  0.000  0.000  1.000  0.000  0.000
  0.000  0.000  0.000  1.000  0.000
  0.000  0.000  0.000  0.000  1.000
atom   63   Tr[ns(na)] =   4.00000
    eigenvalues: 
  0.667  0.667  0.667
    eigenvectors:
  1.000  0.000  0.000
  0.000  1.000  0.000
  0.000  0.000  1.000
    occupations:
  0.667  0.000  0.000
  0.000  0.667  0.000
  0.000  0.000  0.667
atom   64   Tr[ns(na)] =   4.00000
    eigenvalues: 
  0.667  0.667  0.667
    eigenvectors:
  1.000  0.000  0.000
  0.000  1.000  0.000
  0.000  0.000  1.000
    occupations:
  0.667  0.000  0.000
  0.000  0.667  0.000
  0.000  0.000  0.667
atom   65   Tr[ns(na)] =  10.00000
    eigenvalues: 
  1.000  1.000  1.000  1.000  1.000
    eigenvectors:
  1.000  0.000  0.000  0.000  0.000
  0.000  1.000  0.000  0.000  0.000
  0.000  0.000  1.000  0.000  0.000
  0.000  0.000  0.000  1.000  0.000
  0.000  0.000  0.000  0.000  1.000
    occupations:
  1.000  0.000  0.000  0.000  0.000
  0.000  1.000  0.000  0.000  0.000
  0.000  0.000  1.000  0.000  0.000
  0.000  0.000  0.000  1.000  0.000
  0.000  0.000  0.000  0.000  1.000
atom   66   Tr[ns(na)] =  10.00000
    eigenvalues: 
  1.000  1.000  1.000  1.000  1.000
    eigenvectors:
  1.000  0.000  0.000  0.000  0.000
  0.000  1.000  0.000  0.000  0.000
  0.000  0.000  1.000  0.000  0.000
  0.000  0.000  0.000  1.000  0.000
  0.000  0.000  0.000  0.000  1.000
    occupations:
  1.000  0.000  0.000  0.000  0.000
  0.000  1.000  0.000  0.000  0.000
  0.000  0.000  1.000  0.000  0.000
  0.000  0.000  0.000  1.000  0.000
  0.000  0.000  0.000  0.000  1.000
atom   67   Tr[ns(na)] =   4.00000
    eigenvalues: 
  0.667  0.667  0.667
    eigenvectors:
  1.000  0.000  0.000
  0.000  1.000  0.000
  0.000  0.000  1.000
    occupations:
  0.667  0.000  0.000
  0.000  0.667  0.000
  0.000  0.000  0.667
atom   68   Tr[ns(na)] =   4.00000
    eigenvalues: 
  0.667  0.667  0.667
    eigenvectors:
  1.000  0.000  0.000
  0.000  1.000  0.000
  0.000  0.000  1.000
    occupations:
  0.667  0.000  0.000
  0.000  0.667  0.000
  0.000  0.000  0.667
atom   69   Tr[ns(na)] =  10.00000
    eigenvalues: 
  1.000  1.000  1.000  1.000  1.000
    eigenvectors:
  1.000  0.000  0.000  0.000  0.000
  0.000  1.000  0.000  0.000  0.000
  0.000  0.000  1.000  0.000  0.000
  0.000  0.000  0.000  1.000  0.000
  0.000  0.000  0.000  0.000  1.000
    occupations:
  1.000  0.000  0.000  0.000  0.000
  0.000  1.000  0.000  0.000  0.000
  0.000  0.000  1.000  0.000  0.000
  0.000  0.000  0.000  1.000  0.000
  0.000  0.000  0.000  0.000  1.000
atom   71   Tr[ns(na)] =   4.00000
    eigenvalues: 
  0.667  0.667  0.667
    eigenvectors:
  1.000  0.000  0.000
  0.000  1.000  0.000
  0.000  0.000  1.000
    occupations:
  0.667  0.000  0.000
  0.000  0.667  0.000
  0.000  0.000  0.667
atom   72   Tr[ns(na)] =   4.00000
    eigenvalues: 
  0.667  0.667  0.667
    eigenvectors:
  1.000  0.000  0.000
  0.000  1.000  0.000
  0.000  0.000  1.000
    occupations:
  0.667  0.000  0.000
  0.000  0.667  0.000
  0.000  0.000  0.667
atom   73   Tr[ns(na)] =  10.00000
    eigenvalues: 
  1.000  1.000  1.000  1.000  1.000
    eigenvectors:
  1.000  0.000  0.000  0.000  0.000
  0.000  1.000  0.000  0.000  0.000
  0.000  0.000  1.000  0.000  0.000
  0.000  0.000  0.000  1.000  0.000
  0.000  0.000  0.000  0.000  1.000
    occupations:
  1.000  0.000  0.000  0.000  0.000
  0.000  1.000  0.000  0.000  0.000
  0.000  0.000  1.000  0.000  0.000
  0.000  0.000  0.000  1.000  0.000
  0.000  0.000  0.000  0.000  1.000
atom   74   Tr[ns(na)] =  10.00000
    eigenvalues: 
  1.000  1.000  1.000  1.000  1.000
    eigenvectors:
  1.000  0.000  0.000  0.000  0.000
  0.000  1.000  0.000  0.000  0.000
  0.000  0.000  1.000  0.000  0.000
  0.000  0.000  0.000  1.000  0.000
  0.000  0.000  0.000  0.000  1.000
    occupations:
  1.000  0.000  0.000  0.000  0.000
  0.000  1.000  0.000  0.000  0.000
  0.000  0.000  1.000  0.000  0.000
  0.000  0.000  0.000  1.000  0.000
  0.000  0.000  0.000  0.000  1.000
atom   75   Tr[ns(na)] =   4.00000
    eigenvalues: 
  0.667  0.667  0.667
    eigenvectors:
  1.000  0.000  0.000
  0.000  1.000  0.000
  0.000  0.000  1.000
    occupations:
  0.667  0.000  0.000
  0.000  0.667  0.000
  0.000  0.000  0.667
atom   76   Tr[ns(na)] =   4.00000
    eigenvalues: 
  0.667  0.667  0.667
    eigenvectors:
  1.000  0.000  0.000
  0.000  1.000  0.000
  0.000  0.000  1.000
    occupations:
  0.667  0.000  0.000
  0.000  0.667  0.000
  0.000  0.000  0.667
atom   77   Tr[ns(na)] =  10.00000
    eigenvalues: 
  1.000  1.000  1.000  1.000  1.000
    eigenvectors:
  1.000  0.000  0.000  0.000  0.000
  0.000  1.000  0.000  0.000  0.000
  0.000  0.000  1.000  0.000  0.000
  0.000  0.000  0.000  1.000  0.000
  0.000  0.000  0.000  0.000  1.000
    occupations:
  1.000  0.000  0.000  0.000  0.000
  0.000  1.000  0.000  0.000  0.000
  0.000  0.000  1.000  0.000  0.000
  0.000  0.000  0.000  1.000  0.000
  0.000  0.000  0.000  0.000  1.000
atom   78   Tr[ns(na)] =  10.00000
    eigenvalues: 
  1.000  1.000  1.000  1.000  1.000
    eigenvectors:
  1.000  0.000  0.000  0.000  0.000
  0.000  1.000  0.000  0.000  0.000
  0.000  0.000  1.000  0.000  0.000
  0.000  0.000  0.000  1.000  0.000
  0.000  0.000  0.000  0.000  1.000
    occupations:
  1.000  0.000  0.000  0.000  0.000
  0.000  1.000  0.000  0.000  0.000
  0.000  0.000  1.000  0.000  0.000
  0.000  0.000  0.000  1.000  0.000
  0.000  0.000  0.000  0.000  1.000
atom   79   Tr[ns(na)] =   4.00000
    eigenvalues: 
  0.667  0.667  0.667
    eigenvectors:
  1.000  0.000  0.000
  0.000  1.000  0.000
  0.000  0.000  1.000
    occupations:
  0.667  0.000  0.000
  0.000  0.667  0.000
  0.000  0.000  0.667
atom   80   Tr[ns(na)] =   4.00000
    eigenvalues: 
  0.667  0.667  0.667
    eigenvectors:
  1.000  0.000  0.000
  0.000  1.000  0.000
  0.000  0.000  1.000
    occupations:
  0.667  0.000  0.000
  0.000  0.667  0.000
  0.000  0.000  0.667
atom   81   Tr[ns(na)] =  10.00000
    eigenvalues: 
  1.000  1.000  1.000  1.000  1.000
    eigenvectors:
  1.000  0.000  0.000  0.000  0.000
  0.000  1.000  0.000  0.000  0.000
  0.000  0.000  1.000  0.000  0.000
  0.000  0.000  0.000  1.000  0.000
  0.000  0.000  0.000  0.000  1.000
    occupations:
  1.000  0.000  0.000  0.000  0.000
  0.000  1.000  0.000  0.000  0.000
  0.000  0.000  1.000  0.000  0.000
  0.000  0.000  0.000  1.000  0.000
  0.000  0.000  0.000  0.000  1.000
atom   82   Tr[ns(na)] =  10.00000
    eigenvalues: 
  1.000  1.000  1.000  1.000  1.000
    eigenvectors:
  1.000  0.000  0.000  0.000  0.000
  0.000  1.000  0.000  0.000  0.000
  0.000  0.000  1.000  0.000  0.000
  0.000  0.000  0.000  1.000  0.000
  0.000  0.000  0.000  0.000  1.000
    occupations:
  1.000  0.000  0.000  0.000  0.000
  0.000  1.000  0.000  0.000  0.000
  0.000  0.000  1.000  0.000  0.000
  0.000  0.000  0.000  1.000  0.000
  0.000  0.000  0.000  0.000  1.000
atom   83   Tr[ns(na)] =   4.00000
    eigenvalues: 
  0.667  0.667  0.667
    eigenvectors:
  1.000  0.000  0.000
  0.000  1.000  0.000
  0.000  0.000  1.000
    occupations:
  0.667  0.000  0.000
  0.000  0.667  0.000
  0.000  0.000  0.667
atom   84   Tr[ns(na)] =   4.00000
    eigenvalues: 
  0.667  0.667  0.667
    eigenvectors:
  1.000  0.000  0.000
  0.000  1.000  0.000
  0.000  0.000  1.000
    occupations:
  0.667  0.000  0.000
  0.000  0.667  0.000
  0.000  0.000  0.667
atom   85   Tr[ns(na)] =  10.00000
    eigenvalues: 
  1.000  1.000  1.000  1.000  1.000
    eigenvectors:
  1.000  0.000  0.000  0.000  0.000
  0.000  1.000  0.000  0.000  0.000
  0.000  0.000  1.000  0.000  0.000
  0.000  0.000  0.000  1.000  0.000
  0.000  0.000  0.000  0.000  1.000
    occupations:
  1.000  0.000  0.000  0.000  0.000
  0.000  1.000  0.000  0.000  0.000
  0.000  0.000  1.000  0.000  0.000
  0.000  0.000  0.000  1.000  0.000
  0.000  0.000  0.000  0.000  1.000
atom   86   Tr[ns(na)] =  10.00000
    eigenvalues: 
  1.000  1.000  1.000  1.000  1.000
    eigenvectors:
  1.000  0.000  0.000  0.000  0.000
  0.000  1.000  0.000  0.000  0.000
  0.000  0.000  1.000  0.000  0.000
  0.000  0.000  0.000  1.000  0.000
  0.000  0.000  0.000  0.000  1.000
    occupations:
  1.000  0.000  0.000  0.000  0.000
  0.000  1.000  0.000  0.000  0.000
  0.000  0.000  1.000  0.000  0.000
  0.000  0.000  0.000  1.000  0.000
  0.000  0.000  0.000  0.000  1.000
atom   87   Tr[ns(na)] =   4.00000
    eigenvalues: 
  0.667  0.667  0.667
    eigenvectors:
  1.000  0.000  0.000
  0.000  1.000  0.000
  0.000  0.000  1.000
    occupations:
  0.667  0.000  0.000
  0.000  0.667  0.000
  0.000  0.000  0.667
atom   88   Tr[ns(na)] =   4.00000
    eigenvalues: 
  0.667  0.667  0.667
    eigenvectors:
  1.000  0.000  0.000
  0.000  1.000  0.000
  0.000  0.000  1.000
    occupations:
  0.667  0.000  0.000
  0.000  0.667  0.000
  0.000  0.000  0.667
atom   89   Tr[ns(na)] =  10.00000
    eigenvalues: 
  1.000  1.000  1.000  1.000  1.000
    eigenvectors:
  1.000  0.000  0.000  0.000  0.000
  0.000  1.000  0.000  0.000  0.000
  0.000  0.000  1.000  0.000  0.000
  0.000  0.000  0.000  1.000  0.000
  0.000  0.000  0.000  0.000  1.000
    occupations:
  1.000  0.000  0.000  0.000  0.000
  0.000  1.000  0.000  0.000  0.000
  0.000  0.000  1.000  0.000  0.000
  0.000  0.000  0.000  1.000  0.000
  0.000  0.000  0.000  0.000  1.000
atom   90   Tr[ns(na)] =  10.00000
    eigenvalues: 
  1.000  1.000  1.000  1.000  1.000
    eigenvectors:
  1.000  0.000  0.000  0.000  0.000
  0.000  1.000  0.000  0.000  0.000
  0.000  0.000  1.000  0.000  0.000
  0.000  0.000  0.000  1.000  0.000
  0.000  0.000  0.000  0.000  1.000
    occupations:
  1.000  0.000  0.000  0.000  0.000
  0.000  1.000  0.000  0.000  0.000
  0.000  0.000  1.000  0.000  0.000
  0.000  0.000  0.000  1.000  0.000
  0.000  0.000  0.000  0.000  1.000
atom   91   Tr[ns(na)] =   4.00000
    eigenvalues: 
  0.667  0.667  0.667
    eigenvectors:
  1.000  0.000  0.000
  0.000  1.000  0.000
  0.000  0.000  1.000
    occupations:
  0.667  0.000  0.000
  0.000  0.667  0.000
  0.000  0.000  0.667
atom   92   Tr[ns(na)] =   4.00000
    eigenvalues: 
  0.667  0.667  0.667
    eigenvectors:
  1.000  0.000  0.000
  0.000  1.000  0.000
  0.000  0.000  1.000
    occupations:
  0.667  0.000  0.000
  0.000  0.667  0.000
  0.000  0.000  0.667
atom   93   Tr[ns(na)] =  10.00000
    eigenvalues: 
  1.000  1.000  1.000  1.000  1.000
    eigenvectors:
  1.000  0.000  0.000  0.000  0.000
  0.000  1.000  0.000  0.000  0.000
  0.000  0.000  1.000  0.000  0.000
  0.000  0.000  0.000  1.000  0.000
  0.000  0.000  0.000  0.000  1.000
    occupations:
  1.000  0.000  0.000  0.000  0.000
  0.000  1.000  0.000  0.000  0.000
  0.000  0.000  1.000  0.000  0.000
  0.000  0.000  0.000  1.000  0.000
  0.000  0.000  0.000  0.000  1.000
atom   94   Tr[ns(na)] =  10.00000
    eigenvalues: 
  1.000  1.000  1.000  1.000  1.000
    eigenvectors:
  1.000  0.000  0.000  0.000  0.000
  0.000  1.000  0.000  0.000  0.000
  0.000  0.000  1.000  0.000  0.000
  0.000  0.000  0.000  1.000  0.000
  0.000  0.000  0.000  0.000  1.000
    occupations:
  1.000  0.000  0.000  0.000  0.000
  0.000  1.000  0.000  0.000  0.000
  0.000  0.000  1.000  0.000  0.000
  0.000  0.000  0.000  1.000  0.000
  0.000  0.000  0.000  0.000  1.000
atom   95   Tr[ns(na)] =   4.00000
    eigenvalues: 
  0.667  0.667  0.667
    eigenvectors:
  1.000  0.000  0.000
  0.000  1.000  0.000
  0.000  0.000  1.000
    occupations:
  0.667  0.000  0.000
  0.000  0.667  0.000
  0.000  0.000  0.667
atom   96   Tr[ns(na)] =   4.00000
    eigenvalues: 
  0.667  0.667  0.667
    eigenvectors:
  1.000  0.000  0.000
  0.000  1.000  0.000
  0.000  0.000  1.000
    occupations:
  0.667  0.000  0.000
  0.000  0.667  0.000
  0.000  0.000  0.667
atom   97   Tr[ns(na)] =  10.00000
    eigenvalues: 
  1.000  1.000  1.000  1.000  1.000
    eigenvectors:
  1.000  0.000  0.000  0.000  0.000
  0.000  1.000  0.000  0.000  0.000
  0.000  0.000  1.000  0.000  0.000
  0.000  0.000  0.000  1.000  0.000
  0.000  0.000  0.000  0.000  1.000
    occupations:
  1.000  0.000  0.000  0.000  0.000
  0.000  1.000  0.000  0.000  0.000
  0.000  0.000  1.000  0.000  0.000
  0.000  0.000  0.000  1.000  0.000
  0.000  0.000  0.000  0.000  1.000
atom   98   Tr[ns(na)] =  10.00000
    eigenvalues: 
  1.000  1.000  1.000  1.000  1.000
    eigenvectors:
  1.000  0.000  0.000  0.000  0.000
  0.000  1.000  0.000  0.000  0.000
  0.000  0.000  1.000  0.000  0.000
  0.000  0.000  0.000  1.000  0.000
  0.000  0.000  0.000  0.000  1.000
    occupations:
  1.000  0.000  0.000  0.000  0.000
  0.000  1.000  0.000  0.000  0.000
  0.000  0.000  1.000  0.000  0.000
  0.000  0.000  0.000  1.000  0.000
  0.000  0.000  0.000  0.000  1.000
atom   99   Tr[ns(na)] =   4.00000
    eigenvalues: 
  0.667  0.667  0.667
    eigenvectors:
  1.000  0.000  0.000
  0.000  1.000  0.000
  0.000  0.000  1.000
    occupations:
  0.667  0.000  0.000
  0.000  0.667  0.000
  0.000  0.000  0.667
atom  100   Tr[ns(na)] =   4.00000
    eigenvalues: 
  0.667  0.667  0.667
    eigenvectors:
  1.000  0.000  0.000
  0.000  1.000  0.000
  0.000  0.000  1.000
    occupations:
  0.667  0.000  0.000
  0.000  0.667  0.000
  0.000  0.000  0.667
atom  102   Tr[ns(na)] =  10.00000
    eigenvalues: 
  1.000  1.000  1.000  1.000  1.000
    eigenvectors:
  1.000  0.000  0.000  0.000  0.000
  0.000  1.000  0.000  0.000  0.000
  0.000  0.000  1.000  0.000  0.000
  0.000  0.000  0.000  1.000  0.000
  0.000  0.000  0.000  0.000  1.000
    occupations:
  1.000  0.000  0.000  0.000  0.000
  0.000  1.000  0.000  0.000  0.000
  0.000  0.000  1.000  0.000  0.000
  0.000  0.000  0.000  1.000  0.000
  0.000  0.000  0.000  0.000  1.000
atom  103   Tr[ns(na)] =   4.00000
    eigenvalues: 
  0.667  0.667  0.667
    eigenvectors:
  1.000  0.000  0.000
  0.000  1.000  0.000
  0.000  0.000  1.000
    occupations:
  0.667  0.000  0.000
  0.000  0.667  0.000
  0.000  0.000  0.667
atom  104   Tr[ns(na)] =   4.00000
    eigenvalues: 
  0.667  0.667  0.667
    eigenvectors:
  1.000  0.000  0.000
  0.000  1.000  0.000
  0.000  0.000  1.000
    occupations:
  0.667  0.000  0.000
  0.000  0.667  0.000
  0.000  0.000  0.667
atom  105   Tr[ns(na)] =  10.00000
    eigenvalues: 
  1.000  1.000  1.000  1.000  1.000
    eigenvectors:
  1.000  0.000  0.000  0.000  0.000
  0.000  1.000  0.000  0.000  0.000
  0.000  0.000  1.000  0.000  0.000
  0.000  0.000  0.000  1.000  0.000
  0.000  0.000  0.000  0.000  1.000
    occupations:
  1.000  0.000  0.000  0.000  0.000
  0.000  1.000  0.000  0.000  0.000
  0.000  0.000  1.000  0.000  0.000
  0.000  0.000  0.000  1.000  0.000
  0.000  0.000  0.000  0.000  1.000
atom  106   Tr[ns(na)] =  10.00000
    eigenvalues: 
  1.000  1.000  1.000  1.000  1.000
    eigenvectors:
  1.000  0.000  0.000  0.000  0.000
  0.000  1.000  0.000  0.000  0.000
  0.000  0.000  1.000  0.000  0.000
  0.000  0.000  0.000  1.000  0.000
  0.000  0.000  0.000  0.000  1.000
    occupations:
  1.000  0.000  0.000  0.000  0.000
  0.000  1.000  0.000  0.000  0.000
  0.000  0.000  1.000  0.000  0.000
  0.000  0.000  0.000  1.000  0.000
  0.000  0.000  0.000  0.000  1.000
atom  107   Tr[ns(na)] =   4.00000
    eigenvalues: 
  0.667  0.667  0.667
    eigenvectors:
  1.000  0.000  0.000
  0.000  1.000  0.000
  0.000  0.000  1.000
    occupations:
  0.667  0.000  0.000
  0.000  0.667  0.000
  0.000  0.000  0.667
atom  108   Tr[ns(na)] =   4.00000
    eigenvalues: 
  0.667  0.667  0.667
    eigenvectors:
  1.000  0.000  0.000
  0.000  1.000  0.000
  0.000  0.000  1.000
    occupations:
  0.667  0.000  0.000
  0.000  0.667  0.000
  0.000  0.000  0.667
atom  109   Tr[ns(na)] =  10.00000
    eigenvalues: 
  1.000  1.000  1.000  1.000  1.000
    eigenvectors:
  1.000  0.000  0.000  0.000  0.000
  0.000  1.000  0.000  0.000  0.000
  0.000  0.000  1.000  0.000  0.000
  0.000  0.000  0.000  1.000  0.000
  0.000  0.000  0.000  0.000  1.000
    occupations:
  1.000  0.000  0.000  0.000  0.000
  0.000  1.000  0.000  0.000  0.000
  0.000  0.000  1.000  0.000  0.000
  0.000  0.000  0.000  1.000  0.000
  0.000  0.000  0.000  0.000  1.000
atom  110   Tr[ns(na)] =  10.00000
    eigenvalues: 
  1.000  1.000  1.000  1.000  1.000
    eigenvectors:
  1.000  0.000  0.000  0.000  0.000
  0.000  1.000  0.000  0.000  0.000
  0.000  0.000  1.000  0.000  0.000
  0.000  0.000  0.000  1.000  0.000
  0.000  0.000  0.000  0.000  1.000
    occupations:
  1.000  0.000  0.000  0.000  0.000
  0.000  1.000  0.000  0.000  0.000
  0.000  0.000  1.000  0.000  0.000
  0.000  0.000  0.000  1.000  0.000
  0.000  0.000  0.000  0.000  1.000
atom  111   Tr[ns(na)] =   4.00000
    eigenvalues: 
  0.667  0.667  0.667
    eigenvectors:
  1.000  0.000  0.000
  0.000  1.000  0.000
  0.000  0.000  1.000
    occupations:
  0.667  0.000  0.000
  0.000  0.667  0.000
  0.000  0.000  0.667
atom  112   Tr[ns(na)] =   4.00000
    eigenvalues: 
  0.667  0.667  0.667
    eigenvectors:
  1.000  0.000  0.000
  0.000  1.000  0.000
  0.000  0.000  1.000
    occupations:
  0.667  0.000  0.000
  0.000  0.667  0.000
  0.000  0.000  0.667
atom  113   Tr[ns(na)] =  10.00000
    eigenvalues: 
  1.000  1.000  1.000  1.000  1.000
    eigenvectors:
  1.000  0.000  0.000  0.000  0.000
  0.000  1.000  0.000  0.000  0.000
  0.000  0.000  1.000  0.000  0.000
  0.000  0.000  0.000  1.000  0.000
  0.000  0.000  0.000  0.000  1.000
    occupations:
  1.000  0.000  0.000  0.000  0.000
  0.000  1.000  0.000  0.000  0.000
  0.000  0.000  1.000  0.000  0.000
  0.000  0.000  0.000  1.000  0.000
  0.000  0.000  0.000  0.000  1.000
atom  114   Tr[ns(na)] =  10.00000
    eigenvalues: 
  1.000  1.000  1.000  1.000  1.000
    eigenvectors:
  1.000  0.000  0.000  0.000  0.000
  0.000  1.000  0.000  0.000  0.000
  0.000  0.000  1.000  0.000  0.000
  0.000  0.000  0.000  1.000  0.000
  0.000  0.000  0.000  0.000  1.000
    occupations:
  1.000  0.000  0.000  0.000  0.000
  0.000  1.000  0.000  0.000  0.000
  0.000  0.000  1.000  0.000  0.000
  0.000  0.000  0.000  1.000  0.000
  0.000  0.000  0.000  0.000  1.000
atom  115   Tr[ns(na)] =   4.00000
    eigenvalues: 
  0.667  0.667  0.667
    eigenvectors:
  1.000  0.000  0.000
  0.000  1.000  0.000
  0.000  0.000  1.000
    occupations:
  0.667  0.000  0.000
  0.000  0.667  0.000
  0.000  0.000  0.667
atom  116   Tr[ns(na)] =   4.00000
    eigenvalues: 
  0.667  0.667  0.667
    eigenvectors:
  1.000  0.000  0.000
  0.000  1.000  0.000
  0.000  0.000  1.000
    occupations:
  0.667  0.000  0.000
  0.000  0.667  0.000
  0.000  0.000  0.667
atom  117   Tr[ns(na)] =  10.00000
    eigenvalues: 
  1.000  1.000  1.000  1.000  1.000
    eigenvectors:
  1.000  0.000  0.000  0.000  0.000
  0.000  1.000  0.000  0.000  0.000
  0.000  0.000  1.000  0.000  0.000
  0.000  0.000  0.000  1.000  0.000
  0.000  0.000  0.000  0.000  1.000
    occupations:
  1.000  0.000  0.000  0.000  0.000
  0.000  1.000  0.000  0.000  0.000
  0.000  0.000  1.000  0.000  0.000
  0.000  0.000  0.000  1.000  0.000
  0.000  0.000  0.000  0.000  1.000
atom  118   Tr[ns(na)] =  10.00000
    eigenvalues: 
  1.000  1.000  1.000  1.000  1.000
    eigenvectors:
  1.000  0.000  0.000  0.000  0.000
  0.000  1.000  0.000  0.000  0.000
  0.000  0.000  1.000  0.000  0.000
  0.000  0.000  0.000  1.000  0.000
  0.000  0.000  0.000  0.000  1.000
    occupations:
  1.000  0.000  0.000  0.000  0.000
  0.000  1.000  0.000  0.000  0.000
  0.000  0.000  1.000  0.000  0.000
  0.000  0.000  0.000  1.000  0.000
  0.000  0.000  0.000  0.000  1.000
atom  119   Tr[ns(na)] =   4.00000
    eigenvalues: 
  0.667  0.667  0.667
    eigenvectors:
  1.000  0.000  0.000
  0.000  1.000  0.000
  0.000  0.000  1.000
    occupations:
  0.667  0.000  0.000
  0.000  0.667  0.000
  0.000  0.000  0.667
atom  120   Tr[ns(na)] =   4.00000
    eigenvalues: 
  0.667  0.667  0.667
    eigenvectors:
  1.000  0.000  0.000
  0.000  1.000  0.000
  0.000  0.000  1.000
    occupations:
  0.667  0.000  0.000
  0.000  0.667  0.000
  0.000  0.000  0.667
atom  121   Tr[ns(na)] =  10.00000
    eigenvalues: 
  1.000  1.000  1.000  1.000  1.000
    eigenvectors:
  1.000  0.000  0.000  0.000  0.000
  0.000  1.000  0.000  0.000  0.000
  0.000  0.000  1.000  0.000  0.000
  0.000  0.000  0.000  1.000  0.000
  0.000  0.000  0.000  0.000  1.000
    occupations:
  1.000  0.000  0.000  0.000  0.000
  0.000  1.000  0.000  0.000  0.000
  0.000  0.000  1.000  0.000  0.000
  0.000  0.000  0.000  1.000  0.000
  0.000  0.000  0.000  0.000  1.000
atom  122   Tr[ns(na)] =  10.00000
    eigenvalues: 
  1.000  1.000  1.000  1.000  1.000
    eigenvectors:
  1.000  0.000  0.000  0.000  0.000
  0.000  1.000  0.000  0.000  0.000
  0.000  0.000  1.000  0.000  0.000
  0.000  0.000  0.000  1.000  0.000
  0.000  0.000  0.000  0.000  1.000
    occupations:
  1.000  0.000  0.000  0.000  0.000
  0.000  1.000  0.000  0.000  0.000
  0.000  0.000  1.000  0.000  0.000
  0.000  0.000  0.000  1.000  0.000
  0.000  0.000  0.000  0.000  1.000
atom  123   Tr[ns(na)] =   4.00000
    eigenvalues: 
  0.667  0.667  0.667
    eigenvectors:
  1.000  0.000  0.000
  0.000  1.000  0.000
  0.000  0.000  1.000
    occupations:
  0.667  0.000  0.000
  0.000  0.667  0.000
  0.000  0.000  0.667
atom  124   Tr[ns(na)] =   4.00000
    eigenvalues: 
  0.667  0.667  0.667
    eigenvectors:
  1.000  0.000  0.000
  0.000  1.000  0.000
  0.000  0.000  1.000
    occupations:
  0.667  0.000  0.000
  0.000  0.667  0.000
  0.000  0.000  0.667
atom  125   Tr[ns(na)] =  10.00000
    eigenvalues: 
  1.000  1.000  1.000  1.000  1.000
    eigenvectors:
  1.000  0.000  0.000  0.000  0.000
  0.000  1.000  0.000  0.000  0.000
  0.000  0.000  1.000  0.000  0.000
  0.000  0.000  0.000  1.000  0.000
  0.000  0.000  0.000  0.000  1.000
    occupations:
  1.000  0.000  0.000  0.000  0.000
  0.000  1.000  0.000  0.000  0.000
  0.000  0.000  1.000  0.000  0.000
  0.000  0.000  0.000  1.000  0.000
  0.000  0.000  0.000  0.000  1.000
atom  126   Tr[ns(na)] =  10.00000
    eigenvalues: 
  1.000  1.000  1.000  1.000  1.000
    eigenvectors:
  1.000  0.000  0.000  0.000  0.000
  0.000  1.000  0.000  0.000  0.000
  0.000  0.000  1.000  0.000  0.000
  0.000  0.000  0.000  1.000  0.000
  0.000  0.000  0.000  0.000  1.000
    occupations:
  1.000  0.000  0.000  0.000  0.000
  0.000  1.000  0.000  0.000  0.000
  0.000  0.000  1.000  0.000  0.000
  0.000  0.000  0.000  1.000  0.000
  0.000  0.000  0.000  0.000  1.000
atom  127   Tr[ns(na)] =   4.00000
    eigenvalues: 
  0.667  0.667  0.667
    eigenvectors:
  1.000  0.000  0.000
  0.000  1.000  0.000
  0.000  0.000  1.000
    occupations:
  0.667  0.000  0.000
  0.000  0.667  0.000
  0.000  0.000  0.667
atom  128   Tr[ns(na)] =   4.00000
    eigenvalues: 
  0.667  0.667  0.667
    eigenvectors:
  1.000  0.000  0.000
  0.000  1.000  0.000
  0.000  0.000  1.000
    occupations:
  0.667  0.000  0.000
  0.000  0.667  0.000
  0.000  0.000  0.667
atom  130   Tr[ns(na)] =  10.00000
    eigenvalues: 
  1.000  1.000  1.000  1.000  1.000
    eigenvectors:
  1.000  0.000  0.000  0.000  0.000
  0.000  1.000  0.000  0.000  0.000
  0.000  0.000  1.000  0.000  0.000
  0.000  0.000  0.000  1.000  0.000
  0.000  0.000  0.000  0.000  1.000
    occupations:
  1.000  0.000  0.000  0.000  0.000
  0.000  1.000  0.000  0.000  0.000
  0.000  0.000  1.000  0.000  0.000
  0.000  0.000  0.000  1.000  0.000
  0.000  0.000  0.000  0.000  1.000
atom  131   Tr[ns(na)] =   4.00000
    eigenvalues: 
  0.667  0.667  0.667
    eigenvectors:
  1.000  0.000  0.000
  0.000  1.000  0.000
  0.000  0.000  1.000
    occupations:
  0.667  0.000  0.000
  0.000  0.667  0.000
  0.000  0.000  0.667
atom  132   Tr[ns(na)] =   4.00000
    eigenvalues: 
  0.667  0.667  0.667
    eigenvectors:
  1.000  0.000  0.000
  0.000  1.000  0.000
  0.000  0.000  1.000
    occupations:
  0.667  0.000  0.000
  0.000  0.667  0.000
  0.000  0.000  0.667
atom  133   Tr[ns(na)] =  10.00000
    eigenvalues: 
  1.000  1.000  1.000  1.000  1.000
    eigenvectors:
  1.000  0.000  0.000  0.000  0.000
  0.000  1.000  0.000  0.000  0.000
  0.000  0.000  1.000  0.000  0.000
  0.000  0.000  0.000  1.000  0.000
  0.000  0.000  0.000  0.000  1.000
    occupations:
  1.000  0.000  0.000  0.000  0.000
  0.000  1.000  0.000  0.000  0.000
  0.000  0.000  1.000  0.000  0.000
  0.000  0.000  0.000  1.000  0.000
  0.000  0.000  0.000  0.000  1.000
atom  134   Tr[ns(na)] =  10.00000
    eigenvalues: 
  1.000  1.000  1.000  1.000  1.000
    eigenvectors:
  1.000  0.000  0.000  0.000  0.000
  0.000  1.000  0.000  0.000  0.000
  0.000  0.000  1.000  0.000  0.000
  0.000  0.000  0.000  1.000  0.000
  0.000  0.000  0.000  0.000  1.000
    occupations:
  1.000  0.000  0.000  0.000  0.000
  0.000  1.000  0.000  0.000  0.000
  0.000  0.000  1.000  0.000  0.000
  0.000  0.000  0.000  1.000  0.000
  0.000  0.000  0.000  0.000  1.000
atom  135   Tr[ns(na)] =   4.00000
    eigenvalues: 
  0.667  0.667  0.667
    eigenvectors:
  1.000  0.000  0.000
  0.000  1.000  0.000
  0.000  0.000  1.000
    occupations:
  0.667  0.000  0.000
  0.000  0.667  0.000
  0.000  0.000  0.667
atom  136   Tr[ns(na)] =   4.00000
    eigenvalues: 
  0.667  0.667  0.667
    eigenvectors:
  1.000  0.000  0.000
  0.000  1.000  0.000
  0.000  0.000  1.000
    occupations:
  0.667  0.000  0.000
  0.000  0.667  0.000
  0.000  0.000  0.667
atom  137   Tr[ns(na)] =  10.00000
    eigenvalues: 
  1.000  1.000  1.000  1.000  1.000
    eigenvectors:
  1.000  0.000  0.000  0.000  0.000
  0.000  1.000  0.000  0.000  0.000
  0.000  0.000  1.000  0.000  0.000
  0.000  0.000  0.000  1.000  0.000
  0.000  0.000  0.000  0.000  1.000
    occupations:
  1.000  0.000  0.000  0.000  0.000
  0.000  1.000  0.000  0.000  0.000
  0.000  0.000  1.000  0.000  0.000
  0.000  0.000  0.000  1.000  0.000
  0.000  0.000  0.000  0.000  1.000
atom  138   Tr[ns(na)] =  10.00000
    eigenvalues: 
  1.000  1.000  1.000  1.000  1.000
    eigenvectors:
  1.000  0.000  0.000  0.000  0.000
  0.000  1.000  0.000  0.000  0.000
  0.000  0.000  1.000  0.000  0.000
  0.000  0.000  0.000  1.000  0.000
  0.000  0.000  0.000  0.000  1.000
    occupations:
  1.000  0.000  0.000  0.000  0.000
  0.000  1.000  0.000  0.000  0.000
  0.000  0.000  1.000  0.000  0.000
  0.000  0.000  0.000  1.000  0.000
  0.000  0.000  0.000  0.000  1.000
atom  139   Tr[ns(na)] =   4.00000
    eigenvalues: 
  0.667  0.667  0.667
    eigenvectors:
  1.000  0.000  0.000
  0.000  1.000  0.000
  0.000  0.000  1.000
    occupations:
  0.667  0.000  0.000
  0.000  0.667  0.000
  0.000  0.000  0.667
atom  140   Tr[ns(na)] =   4.00000
    eigenvalues: 
  0.667  0.667  0.667
    eigenvectors:
  1.000  0.000  0.000
  0.000  1.000  0.000
  0.000  0.000  1.000
    occupations:
  0.667  0.000  0.000
  0.000  0.667  0.000
  0.000  0.000  0.667
atom  141   Tr[ns(na)] =  10.00000
    eigenvalues: 
  1.000  1.000  1.000  1.000  1.000
    eigenvectors:
  1.000  0.000  0.000  0.000  0.000
  0.000  1.000  0.000  0.000  0.000
  0.000  0.000  1.000  0.000  0.000
  0.000  0.000  0.000  1.000  0.000
  0.000  0.000  0.000  0.000  1.000
    occupations:
  1.000  0.000  0.000  0.000  0.000
  0.000  1.000  0.000  0.000  0.000
  0.000  0.000  1.000  0.000  0.000
  0.000  0.000  0.000  1.000  0.000
  0.000  0.000  0.000  0.000  1.000
atom  142   Tr[ns(na)] =  10.00000
    eigenvalues: 
  1.000  1.000  1.000  1.000  1.000
    eigenvectors:
  1.000  0.000  0.000  0.000  0.000
  0.000  1.000  0.000  0.000  0.000
  0.000  0.000  1.000  0.000  0.000
  0.000  0.000  0.000  1.000  0.000
  0.000  0.000  0.000  0.000  1.000
    occupations:
  1.000  0.000  0.000  0.000  0.000
  0.000  1.000  0.000  0.000  0.000
  0.000  0.000  1.000  0.000  0.000
  0.000  0.000  0.000  1.000  0.000
  0.000  0.000  0.000  0.000  1.000
atom  143   Tr[ns(na)] =   4.00000
    eigenvalues: 
  0.667  0.667  0.667
    eigenvectors:
  1.000  0.000  0.000
  0.000  1.000  0.000
  0.000  0.000  1.000
    occupations:
  0.667  0.000  0.000
  0.000  0.667  0.000
  0.000  0.000  0.667
atom  144   Tr[ns(na)] =   4.00000
    eigenvalues: 
  0.667  0.667  0.667
    eigenvectors:
  1.000  0.000  0.000
  0.000  1.000  0.000
  0.000  0.000  1.000
    occupations:
  0.667  0.000  0.000
  0.000  0.667  0.000
  0.000  0.000  0.667
atom  145   Tr[ns(na)] =  10.00000
    eigenvalues: 
  1.000  1.000  1.000  1.000  1.000
    eigenvectors:
  1.000  0.000  0.000  0.000  0.000
  0.000  1.000  0.000  0.000  0.000
  0.000  0.000  1.000  0.000  0.000
  0.000  0.000  0.000  1.000  0.000
  0.000  0.000  0.000  0.000  1.000
    occupations:
  1.000  0.000  0.000  0.000  0.000
  0.000  1.000  0.000  0.000  0.000
  0.000  0.000  1.000  0.000  0.000
  0.000  0.000  0.000  1.000  0.000
  0.000  0.000  0.000  0.000  1.000
atom  146   Tr[ns(na)] =  10.00000
    eigenvalues: 
  1.000  1.000  1.000  1.000  1.000
    eigenvectors:
  1.000  0.000  0.000  0.000  0.000
  0.000  1.000  0.000  0.000  0.000
  0.000  0.000  1.000  0.000  0.000
  0.000  0.000  0.000  1.000  0.000
  0.000  0.000  0.000  0.000  1.000
    occupations:
  1.000  0.000  0.000  0.000  0.000
  0.000  1.000  0.000  0.000  0.000
  0.000  0.000  1.000  0.000  0.000
  0.000  0.000  0.000  1.000  0.000
  0.000  0.000  0.000  0.000  1.000
atom  147   Tr[ns(na)] =   4.00000
    eigenvalues: 
  0.667  0.667  0.667
    eigenvectors:
  1.000  0.000  0.000
  0.000  1.000  0.000
  0.000  0.000  1.000
    occupations:
  0.667  0.000  0.000
  0.000  0.667  0.000
  0.000  0.000  0.667
atom  148   Tr[ns(na)] =   4.00000
    eigenvalues: 
  0.667  0.667  0.667
    eigenvectors:
  1.000  0.000  0.000
  0.000  1.000  0.000
  0.000  0.000  1.000
    occupations:
  0.667  0.000  0.000
  0.000  0.667  0.000
  0.000  0.000  0.667
atom  149   Tr[ns(na)] =  10.00000
    eigenvalues: 
  1.000  1.000  1.000  1.000  1.000
    eigenvectors:
  1.000  0.000  0.000  0.000  0.000
  0.000  1.000  0.000  0.000  0.000
  0.000  0.000  1.000  0.000  0.000
  0.000  0.000  0.000  1.000  0.000
  0.000  0.000  0.000  0.000  1.000
    occupations:
  1.000  0.000  0.000  0.000  0.000
  0.000  1.000  0.000  0.000  0.000
  0.000  0.000  1.000  0.000  0.000
  0.000  0.000  0.000  1.000  0.000
  0.000  0.000  0.000  0.000  1.000
atom  150   Tr[ns(na)] =  10.00000
    eigenvalues: 
  1.000  1.000  1.000  1.000  1.000
    eigenvectors:
  1.000  0.000  0.000  0.000  0.000
  0.000  1.000  0.000  0.000  0.000
  0.000  0.000  1.000  0.000  0.000
  0.000  0.000  0.000  1.000  0.000
  0.000  0.000  0.000  0.000  1.000
    occupations:
  1.000  0.000  0.000  0.000  0.000
  0.000  1.000  0.000  0.000  0.000
  0.000  0.000  1.000  0.000  0.000
  0.000  0.000  0.000  1.000  0.000
  0.000  0.000  0.000  0.000  1.000
atom  151   Tr[ns(na)] =   4.00000
    eigenvalues: 
  0.667  0.667  0.667
    eigenvectors:
  1.000  0.000  0.000
  0.000  1.000  0.000
  0.000  0.000  1.000
    occupations:
  0.667  0.000  0.000
  0.000  0.667  0.000
  0.000  0.000  0.667
atom  152   Tr[ns(na)] =   4.00000
    eigenvalues: 
  0.667  0.667  0.667
    eigenvectors:
  1.000  0.000  0.000
  0.000  1.000  0.000
  0.000  0.000  1.000
    occupations:
  0.667  0.000  0.000
  0.000  0.667  0.000
  0.000  0.000  0.667
atom  153   Tr[ns(na)] =  10.00000
    eigenvalues: 
  1.000  1.000  1.000  1.000  1.000
    eigenvectors:
  1.000  0.000  0.000  0.000  0.000
  0.000  1.000  0.000  0.000  0.000
  0.000  0.000  1.000  0.000  0.000
  0.000  0.000  0.000  1.000  0.000
  0.000  0.000  0.000  0.000  1.000
    occupations:
  1.000  0.000  0.000  0.000  0.000
  0.000  1.000  0.000  0.000  0.000
  0.000  0.000  1.000  0.000  0.000
  0.000  0.000  0.000  1.000  0.000
  0.000  0.000  0.000  0.000  1.000
atom  154   Tr[ns(na)] =  10.00000
    eigenvalues: 
  1.000  1.000  1.000  1.000  1.000
    eigenvectors:
  1.000  0.000  0.000  0.000  0.000
  0.000  1.000  0.000  0.000  0.000
  0.000  0.000  1.000  0.000  0.000
  0.000  0.000  0.000  1.000  0.000
  0.000  0.000  0.000  0.000  1.000
    occupations:
  1.000  0.000  0.000  0.000  0.000
  0.000  1.000  0.000  0.000  0.000
  0.000  0.000  1.000  0.000  0.000
  0.000  0.000  0.000  1.000  0.000
  0.000  0.000  0.000  0.000  1.000
atom  155   Tr[ns(na)] =   4.00000
    eigenvalues: 
  0.667  0.667  0.667
    eigenvectors:
  1.000  0.000  0.000
  0.000  1.000  0.000
  0.000  0.000  1.000
    occupations:
  0.667  0.000  0.000
  0.000  0.667  0.000
  0.000  0.000  0.667
atom  156   Tr[ns(na)] =   4.00000
    eigenvalues: 
  0.667  0.667  0.667
    eigenvectors:
  1.000  0.000  0.000
  0.000  1.000  0.000
  0.000  0.000  1.000
    occupations:
  0.667  0.000  0.000
  0.000  0.667  0.000
  0.000  0.000  0.667
atom  157   Tr[ns(na)] =  10.00000
    eigenvalues: 
  1.000  1.000  1.000  1.000  1.000
    eigenvectors:
  1.000  0.000  0.000  0.000  0.000
  0.000  1.000  0.000  0.000  0.000
  0.000  0.000  1.000  0.000  0.000
  0.000  0.000  0.000  1.000  0.000
  0.000  0.000  0.000  0.000  1.000
    occupations:
  1.000  0.000  0.000  0.000  0.000
  0.000  1.000  0.000  0.000  0.000
  0.000  0.000  1.000  0.000  0.000
  0.000  0.000  0.000  1.000  0.000
  0.000  0.000  0.000  0.000  1.000
atom  158   Tr[ns(na)] =  10.00000
    eigenvalues: 
  1.000  1.000  1.000  1.000  1.000
    eigenvectors:
  1.000  0.000  0.000  0.000  0.000
  0.000  1.000  0.000  0.000  0.000
  0.000  0.000  1.000  0.000  0.000
  0.000  0.000  0.000  1.000  0.000
  0.000  0.000  0.000  0.000  1.000
    occupations:
  1.000  0.000  0.000  0.000  0.000
  0.000  1.000  0.000  0.000  0.000
  0.000  0.000  1.000  0.000  0.000
  0.000  0.000  0.000  1.000  0.000
  0.000  0.000  0.000  0.000  1.000
atom  159   Tr[ns(na)] =   4.00000
    eigenvalues: 
  0.667  0.667  0.667
    eigenvectors:
  1.000  0.000  0.000
  0.000  1.000  0.000
  0.000  0.000  1.000
    occupations:
  0.667  0.000  0.000
  0.000  0.667  0.000
  0.000  0.000  0.667
atom  160   Tr[ns(na)] =   4.00000
    eigenvalues: 
  0.667  0.667  0.667
    eigenvectors:
  1.000  0.000  0.000
  0.000  1.000  0.000
  0.000  0.000  1.000
    occupations:
  0.667  0.000  0.000
  0.000  0.667  0.000
  0.000  0.000  0.667
atom  161   Tr[ns(na)] =  10.00000
    eigenvalues: 
  1.000  1.000  1.000  1.000  1.000
    eigenvectors:
  1.000  0.000  0.000  0.000  0.000
  0.000  1.000  0.000  0.000  0.000
  0.000  0.000  1.000  0.000  0.000
  0.000  0.000  0.000  1.000  0.000
  0.000  0.000  0.000  0.000  1.000
    occupations:
  1.000  0.000  0.000  0.000  0.000
  0.000  1.000  0.000  0.000  0.000
  0.000  0.000  1.000  0.000  0.000
  0.000  0.000  0.000  1.000  0.000
  0.000  0.000  0.000  0.000  1.000
atom  162   Tr[ns(na)] =  10.00000
    eigenvalues: 
  1.000  1.000  1.000  1.000  1.000
    eigenvectors:
  1.000  0.000  0.000  0.000  0.000
  0.000  1.000  0.000  0.000  0.000
  0.000  0.000  1.000  0.000  0.000
  0.000  0.000  0.000  1.000  0.000
  0.000  0.000  0.000  0.000  1.000
    occupations:
  1.000  0.000  0.000  0.000  0.000
  0.000  1.000  0.000  0.000  0.000
  0.000  0.000  1.000  0.000  0.000
  0.000  0.000  0.000  1.000  0.000
  0.000  0.000  0.000  0.000  1.000
atom  163   Tr[ns(na)] =   4.00000
    eigenvalues: 
  0.667  0.667  0.667
    eigenvectors:
  1.000  0.000  0.000
  0.000  1.000  0.000
  0.000  0.000  1.000
    occupations:
  0.667  0.000  0.000
  0.000  0.667  0.000
  0.000  0.000  0.667
atom  164   Tr[ns(na)] =   4.00000
    eigenvalues: 
  0.667  0.667  0.667
    eigenvectors:
  1.000  0.000  0.000
  0.000  1.000  0.000
  0.000  0.000  1.000
    occupations:
  0.667  0.000  0.000
  0.000  0.667  0.000
  0.000  0.000  0.667
atom  165   Tr[ns(na)] =  10.00000
    eigenvalues: 
  1.000  1.000  1.000  1.000  1.000
    eigenvectors:
  1.000  0.000  0.000  0.000  0.000
  0.000  1.000  0.000  0.000  0.000
  0.000  0.000  1.000  0.000  0.000
  0.000  0.000  0.000  1.000  0.000
  0.000  0.000  0.000  0.000  1.000
    occupations:
  1.000  0.000  0.000  0.000  0.000
  0.000  1.000  0.000  0.000  0.000
  0.000  0.000  1.000  0.000  0.000
  0.000  0.000  0.000  1.000  0.000
  0.000  0.000  0.000  0.000  1.000
atom  166   Tr[ns(na)] =  10.00000
    eigenvalues: 
[...]
    eigenvectors:
  0.040  0.165  0.795  0.001  0.000
  0.240  0.092  0.003  0.421  0.244
  0.062  0.172  0.065  0.239  0.463
  0.175  0.390  0.137  0.113  0.185
  0.484  0.181  0.000  0.226  0.108
    occupations:
  0.999 -0.000  0.000  0.000  0.000
 -0.000  0.999 -0.000  0.000 -0.001
  0.000 -0.000  0.999 -0.000  0.000
  0.000  0.000 -0.000  0.999  0.000
  0.000 -0.001  0.000  0.000  0.999
atom  190   Tr[ns(na)] =   9.99161
    eigenvalues: 
  0.999  0.999  0.999  1.000  1.000
    eigenvectors:
  0.082  0.247  0.671  0.000  0.000
  0.003  0.229  0.069  0.291  0.408
  0.269  0.000  0.028  0.418  0.284
  0.636  0.002  0.064  0.171  0.127
  0.010  0.522  0.168  0.119  0.181
    occupations:
  0.999 -0.000  0.000 -0.000  0.000
 -0.000  0.999  0.000  0.000  0.000
  0.000  0.000  0.999  0.001  0.000
 -0.000  0.000  0.001  0.999 -0.000
  0.000  0.000  0.000 -0.000  0.999
atom  191   Tr[ns(na)] =   5.75412
    eigenvalues: 
  0.958  0.959  0.959
    eigenvectors:
  0.066  0.072  0.861
  0.265  0.724  0.011
  0.668  0.204  0.128
    occupations:
  0.959 -0.000 -0.000
 -0.000  0.959 -0.000
 -0.000 -0.000  0.959
atom  192   Tr[ns(na)] =   5.75296
    eigenvalues: 
  0.957  0.959  0.960
    eigenvectors:
  0.027  0.006  0.967
  0.656  0.336  0.008
  0.317  0.659  0.024
    occupations:
  0.960 -0.000 -0.000
 -0.000  0.958 -0.001
 -0.000 -0.001  0.959
atom  193   Tr[ns(na)] =   9.99166
    eigenvalues: 
  0.999  0.999  0.999  1.000  1.000
    eigenvectors:
  0.003  0.230  0.767  0.000  0.000
  0.302  0.004  0.000  0.004  0.690
  0.003  0.236  0.069  0.688  0.004
  0.006  0.522  0.164  0.306  0.002
  0.686  0.008  0.000  0.002  0.304
    occupations:
  0.999  0.000  0.000  0.000 -0.000
  0.000  0.999  0.000  0.000 -0.001
  0.000  0.000  0.999 -0.000  0.000
  0.000  0.000 -0.000  0.999  0.000
 -0.000 -0.001  0.000  0.000  0.999
atom  194   Tr[ns(na)] =   9.99154
    eigenvalues: 
  0.999  0.999  0.999  1.000  1.000
    eigenvectors:
  0.008  0.029  0.963  0.000  0.000
  0.034  0.273  0.006  0.114  0.573
  0.280  0.030  0.006  0.572  0.112
  0.603  0.067  0.014  0.264  0.051
  0.075  0.601  0.011  0.050  0.264
    occupations:
  0.999  0.000  0.000 -0.000 -0.000
  0.000  0.999  0.000 -0.000  0.000
  0.000  0.000  0.999  0.001 -0.000
 -0.000 -0.000  0.001  0.999  0.000
 -0.000  0.000 -0.000  0.000  0.999
atom  195   Tr[ns(na)] =   5.75388
    eigenvalues: 
  0.958  0.959  0.960
    eigenvectors:
  0.026  0.014  0.960
  0.094  0.879  0.027
  0.880  0.106  0.013
    occupations:
  0.960  0.000 -0.000
  0.000  0.959  0.000
 -0.000  0.000  0.958
atom  196   Tr[ns(na)] =   5.75379
    eigenvalues: 
  0.958  0.959  0.960
    eigenvectors:
  0.015  0.000  0.984
  0.942  0.044  0.014
  0.043  0.956  0.001
    occupations:
  0.960 -0.000  0.000
 -0.000  0.959  0.000
  0.000  0.000  0.959
atom  197   Tr[ns(na)] =   9.99170
    eigenvalues: 
  0.999  0.999  0.999  1.000  1.000
    eigenvectors:
  0.006  0.532  0.461  0.000  0.000
  0.290  0.002  0.000  0.485  0.222
  0.001  0.151  0.161  0.218  0.469
  0.003  0.308  0.377  0.100  0.212
  0.700  0.007  0.000  0.196  0.096
    occupations:
  0.999 -0.000  0.000  0.000 -0.000
 -0.000  0.999 -0.000  0.000 -0.001
  0.000 -0.000  0.999 -0.000 -0.000
  0.000  0.000 -0.000  0.999  0.000
 -0.000 -0.001 -0.000  0.000  0.999
atom  198   Tr[ns(na)] =   9.99165
    eigenvalues: 
  0.999  0.999  0.999  1.000  1.000
    eigenvectors:
  0.002  0.153  0.845  0.000  0.000
  0.034  0.234  0.039  0.445  0.247
  0.270  0.025  0.008  0.247  0.450
  0.617  0.061  0.019  0.108  0.195
  0.077  0.527  0.088  0.200  0.108
    occupations:
  0.999  0.000  0.000 -0.000 -0.000
  0.000  0.999  0.000 -0.000  0.000
  0.000  0.000  0.999  0.000 -0.000
 -0.000 -0.000  0.000  0.999  0.000
 -0.000  0.000 -0.000  0.000  0.999
atom  199   Tr[ns(na)] =   5.75381
    eigenvalues: 
  0.958  0.959  0.959
    eigenvectors:
  0.000  0.098  0.902
  0.101  0.808  0.091
  0.898  0.095  0.007
    occupations:
  0.959 -0.000  0.000
 -0.000  0.959 -0.000
  0.000 -0.000  0.958
atom  200   Tr[ns(na)] =   5.75353
    eigenvalues: 
  0.958  0.959  0.960
    eigenvectors:
  0.010  0.000  0.989
  0.188  0.811  0.001
  0.801  0.189  0.010
    occupations:
  0.960 -0.000 -0.000
 -0.000  0.959 -0.000
 -0.000 -0.000  0.958
N of occupied +U levels = 1544.806508
 --- exit write_ns ---

          k = 0.0000 0.0000 0.0000 ( 15553 PWs)   bands (ev):

   -10.5070 -10.4899 -10.4648  -9.8948  -9.8641  -9.8516  -9.8497  -9.8420
    -9.8374  -9.8341  -9.8156  -9.8131  -9.7116  -9.6822  -9.6505  -9.6477
    -9.6244  -9.6111  -9.5966  -9.5925  -9.5733  -9.5687  -9.5576  -9.5567
    -9.5488  -9.5417  -9.5287  -9.5281  -9.5162  -9.5077  -9.5037  -9.5002
    -9.4971  -9.4916  -9.4867  -9.4753  -9.4749  -9.4609  -9.4563  -9.4532
    -9.4412  -9.4355  -9.4333  -9.4188  -9.4166  -9.4146  -9.4116  -9.3982
    -9.3923  -9.3911  -9.3846  -9.3804  -9.3757  -9.3719  -9.3643  -9.3620
    -9.3608  -9.3549  -9.3531  -9.3506  -9.3432  -9.3385  -9.3357  -9.3272
    -9.3239  -9.3185  -9.3153  -9.3102  -9.3053  -9.3043  -9.2953  -9.2892
    -9.2886  -9.2674  -9.2662  -9.2660  -9.2567  -9.2458  -9.2452  -9.2401
    -9.2304  -9.2227  -9.2186  -9.2061  -9.2027  -9.1985  -9.1825  -9.1679
    -9.1582  -9.1403  -9.1342  -9.1215  -9.1176  -9.1120  -9.0783  -9.0695
    -9.0688  -9.0669  -9.0647  -9.0539  -3.1382  -3.0945  -3.0802  -2.9872
    -2.9619  -2.9398  -2.9316  -2.9131  -2.9052  -2.8729  -2.8537  -2.8471
    -2.8445  -2.8424  -2.8368  -2.8090  -2.8060  -2.7969  -2.7886  -2.7804
    -2.7672  -2.7666  -2.7606  -2.7548  -2.7460  -2.7394  -2.7235  -2.7162
    -2.7153  -2.7021  -2.6929  -2.6859  -2.6704  -2.6697  -2.6672  -2.6598
    -2.6483  -2.6481  -2.6404  -2.6394  -2.6332  -2.6311  -2.6277  -2.6203
    -2.6150  -2.6148  -2.6103  -2.6035  -2.6022  -2.5852  -2.5849  -2.5809
    -2.5774  -2.5709  -2.5641  -2.5571  -2.5565  -2.5541  -2.5448  -2.5285
    -2.5096  -2.5027  -2.4964  -2.4950  -2.4841  -2.4810  -2.4732  -2.4708
    -2.4692  -2.4667  -2.4660  -2.4540  -2.4442  -2.4407  -2.4253  -2.4228
    -2.4158  -2.4137  -2.4031  -2.4010  -2.3906  -2.3900  -2.3803  -2.3718
    -2.3627  -2.3549  -2.3542  -2.3399  -2.3238  -2.3187  -2.3151  -2.3060
    -2.2971  -2.2922  -2.2878  -2.2816  -2.2815  -2.2766  -2.2748  -2.2547
    -2.2523  -2.2477  -2.2405  -2.2395  -2.2318  -2.2298  -2.2231  -2.2198
    -2.2176  -2.2155  -2.2041  -2.2014  -2.1968  -2.1909  -2.1882  -2.1836
    -2.1812  -2.1747  -2.1726  -2.1693  -2.1688  -2.1671  -2.1554  -2.1538
    -2.1475  -2.1467  -2.1425  -2.1424  -2.1365  -2.1257  -2.1241  -2.1163
    -2.1141  -2.1115  -2.1060  -2.1006  -2.1000  -2.0955  -2.0948  -2.0888
    -2.0841  -2.0764  -2.0754  -2.0674  -2.0668  -2.0559  -2.0524  -2.0519
    -2.0449  -2.0430  -2.0369  -2.0295  -2.0258  -2.0233  -2.0178  -2.0139
    -2.0096  -2.0084  -2.0049  -2.0005  -1.9984  -1.9918  -1.9916  -1.9867
    -1.9861  -1.9751  -1.9731  -1.9652  -1.9626  -1.9536  -1.9532  -1.9517
    -1.9478  -1.9434  -1.9417  -1.9376  -1.9248  -1.9191  -1.9120  -1.9087
    -1.9059  -1.9009  -1.8970  -1.8970  -1.8864  -1.8827  -1.8822  -1.8762
    -1.8681  -1.8630  -1.8570  -1.8489  -1.8465  -1.8435  -1.8369  -1.8335
    -1.8298  -1.8295  -1.8205  -1.8134  -1.7964  -1.7962  -1.7915  -1.7779
    -1.7762  -1.7685  -1.7648  -1.7588  -1.7540  -1.7537  -1.7434  -1.7382
    -1.7369  -1.7308  -1.7271  -1.7223  -1.7189  -1.7155  -1.7124  -1.7075
    -1.7030  -1.6961  -1.6868  -1.6788  -1.6760  -1.6709  -1.6673  -1.6602
    -1.6490  -1.6459  -1.6413  -1.6344  -1.6311  -1.6143  -1.6102  -1.6083
    -1.6075  -1.5949  -1.5810  -1.5772  -1.5634  -1.5596  -1.5511  -1.5477
    -1.5457  -1.5374  -1.5357  -1.5266  -1.5252  -1.5232  -1.5159  -1.5127
    -1.5084  -1.5048  -1.4940  -1.4901  -1.4868  -1.4792  -1.4764  -1.4682
    -1.4640  -1.4627  -1.4599  -1.4536  -1.4416  -1.4367  -1.4354  -1.4342
    -1.4339  -1.4291  -1.4270  -1.4231  -1.4175  -1.4152  -1.4093  -1.4045
    -1.4034  -1.4016  -1.3915  -1.3907  -1.3797  -1.3758  -1.3698  -1.3679
    -1.3615  -1.3584  -1.3525  -1.3493  -1.3382  -1.3372  -1.3308  -1.3229
    -1.3200  -1.3135  -1.3095  -1.3032  -1.2979  -1.2755  -1.2736  -1.2724
    -1.2599  -1.2582  -1.2476  -1.2409  -1.2386  -1.2265  -1.2242  -1.2069
    -1.2043  -1.2005  -1.1972  -1.1914  -1.1864  -1.1852  -1.1721  -1.1671
    -1.1667  -1.1628  -1.1615  -1.1570  -1.1543  -1.1507  -1.1389  -1.1285
    -1.1267  -1.1192  -1.1137  -1.1083  -1.1078  -1.1030  -1.0988  -1.0877
    -1.0873  -1.0819  -1.0771  -1.0715  -1.0692  -1.0688  -1.0593  -1.0568
    -1.0546  -1.0476  -1.0454  -1.0376  -1.0345  -1.0295  -1.0256  -1.0184
    -1.0173  -1.0167  -1.0134  -1.0068  -0.9988  -0.9962  -0.9962  -0.9933
    -0.9888  -0.9818  -0.9798  -0.9727  -0.9701  -0.9638  -0.9623  -0.9619
    -0.9611  -0.9532  -0.9506  -0.9501  -0.9469  -0.9429  -0.9376  -0.9364
    -0.9321  -0.9295  -0.9284  -0.9276  -0.9232  -0.9160  -0.9127  -0.9037
    -0.9020  -0.8986  -0.8895  -0.8801  -0.8784  -0.8750  -0.8697  -0.8688
    -0.8653  -0.8583  -0.8507  -0.8467  -0.8406  -0.8368  -0.8347  -0.8294
    -0.8218  -0.8207  -0.8156  -0.8064  -0.8043  -0.8014  -0.7948  -0.7922
    -0.7844  -0.7797  -0.7757  -0.7746  -0.7672  -0.7575  -0.7535  -0.7534
    -0.7496  -0.7483  -0.7455  -0.7386  -0.7281  -0.7232  -0.7181  -0.7130
    -0.7120  -0.7021  -0.6930  -0.6763  -0.6735  -0.6540  -0.6521  -0.6371
    -0.6249  -0.6242  -0.6130  -0.6044  -0.5969  -0.5754  -0.5709  -0.5615
    -0.5430  -0.5309  -0.5242  -0.4940  -0.4907  -0.4778  -0.4711  -0.4635
    -0.4454  -0.4454  -0.4317  -0.4213  -0.4137  -0.3645  -0.3639  -0.3529
    -0.3473  -0.3330  -0.3328  -0.2915  -0.2167  -0.1994  -0.1838  -0.1493
    -0.1380  -0.1219  -0.1114  -0.1063  -0.0986  -0.0890  -0.0725  -0.0706
    -0.0609  -0.0445  -0.0068   0.0159   0.0165   0.0283   0.0634   0.0636
     0.0821   0.0865   0.0928   0.0995   0.1274   0.1924   0.1982   0.2393
     0.2464   0.2771   0.2875   0.3156   0.4199   0.4661   0.5266   0.5396
     0.5617   0.6377   0.6986   0.7763   0.8238   0.8481   0.8711   0.8903
     0.9084   0.9197   0.9336   0.9754   0.9872   1.0089   1.0275   1.0473
     1.0508   1.0625   1.0916   1.1119   1.1177   1.1210   1.1270   1.1352
     1.1620   1.1654   1.1947   1.1953   1.2064   1.2399   1.2600   1.2776
     1.3072   1.3220   1.3349   1.3360   1.3531   1.3903   1.3968   1.4066
     1.4459   1.4540   1.4880   1.4974   1.5401   1.5759   1.6124   1.6440
     1.6553   1.6728   1.6780   1.7300   1.7571   1.7927   1.8016   1.8526
     1.8826   1.8845   1.9095   1.9103   1.9362   1.9653   1.9671   1.9856
     2.0251   2.0382   2.0757   2.0822   2.1098   2.1286   2.1526   2.2139
     2.2211   2.2396   2.2960   2.3116   2.3468   2.3501   2.4115   2.4335
     2.4442   2.4455   2.5085   2.5131   2.5218   2.5319   2.5669   2.5866
     2.6306   2.6551   2.6759   2.6944   2.7275   2.7399   2.7747   2.8432
     2.8613   2.8963   2.9067   2.9438   2.9835   2.9966   2.9982   3.0143
     3.0158   3.0464   3.0600   3.0697   3.0830   3.0881   3.1007   3.1097
     3.1233   3.1308   3.1549   3.1695   3.1702   3.1905   3.2047   3.2121
     3.2517   3.2651   3.2836   3.3538   3.3587   3.3688   3.3804   3.3921
     3.4093   3.4367   3.4502   3.4526   3.4840   3.5051   3.5179   3.5295
     3.5432   3.5637   3.5710   3.5751   3.6081   3.6514   3.6891   3.7019
     3.7251   3.7423   3.7902   3.8079   3.8357   3.8533   3.8583   3.8711
     3.9112   3.9309   3.9407   3.9584   3.9778   3.9812   4.0075   4.0224
     4.0438   4.0440   4.0632   4.0874   4.0981   4.1241   4.1327   4.1373
     4.1580   4.1968   4.2152   4.2266   4.2398   4.2602   4.2673   4.2693
     4.2812   4.3023   4.3126   4.3374   4.3488   4.3581   4.3634   4.3748
     4.3821   4.3922   4.3986   4.4009   4.4129   4.4263   4.4373   4.4415
     4.4436   4.4589   4.4615   4.4723   4.4780   4.4829   4.5024   4.5091
     4.5180   4.5212   4.5215   4.5281   4.5303   4.5380   4.5443   4.5589
     4.5641   4.5707   4.5758   4.5838   4.5927   4.6188   4.6224   4.6230
     4.6299   4.6308   4.6382   4.6442   4.6513   4.6513   4.6562   4.6610
     4.6788   4.6858   4.6890   4.6960   4.7053   4.7316   4.7333   4.7481
     4.7513   4.7548   4.7606   4.7907   4.7960   4.8042   4.8133   4.8154
     4.8226   4.8346   4.8574   4.8581   4.8975   4.9043   4.9345   4.9431
     4.9470   4.9847   5.0041   5.0236   5.0271   5.0471   5.0503   5.0587
     5.0776   5.0946   5.1055   5.1208   5.1325   5.1422   5.1493   5.1617
     5.1726   5.1782   5.1881   5.1956   5.2087   5.2291   5.2424   5.2520
     5.2647   5.2776   5.4153   5.5322   5.5740   5.5953   5.6307   5.6387
     5.6514   5.6759   5.6945   5.7518   5.7572   5.7597   5.7619   5.7740
     5.7951   5.8467   6.0679   6.1236   6.1240   9.6824  11.3302  11.3705
    11.3811  11.4807  11.4875  11.5318  12.2876  12.3095  13.1715  13.1908
    13.2135  13.2320  13.2527  13.2567  13.3289  13.3410  13.3687  13.3743
    13.4032  13.4190  13.5073  13.5262  13.5336  13.5451  13.5857  13.5981
    13.9276  13.9363  13.9609  13.9851  14.0056  14.0340  14.1513  14.2313
    14.2461  14.2804  14.2882  14.2945  14.3492  14.3697  14.3888  14.3890
    14.3997  14.4002  14.4470  14.5353  14.5468  14.5580  14.5610  14.5785
    14.5956  14.6062  14.6079  14.6204  14.6249  14.6353  14.6494  15.3798
    15.4185  15.4938  15.4974  15.5382  15.5490  15.5549  15.5592  15.5712
    15.6040  15.6122  15.6147  15.6218  15.6354  15.6411  15.6476  15.6565
    15.6775  15.7285  15.7401  15.7472  15.7778  15.8957  15.9152  16.0271
    16.0963  16.1384  16.1559  16.1572  16.1604  16.2382  16.2610  16.2765
    16.2794  16.2950  16.2982  16.3027  16.3305  16.3550  16.4158  16.4453
    16.4520  16.4604  16.4731  16.4987  16.5071  16.5734  16.5878  16.5929
    16.5959  16.6135  16.6136  16.6368  16.6649  16.9824  17.0389  17.0553
    17.0809  17.1569  17.1638  17.2768  17.3292  17.3367  17.3605  17.3832
    17.4030  17.4362  17.4480  17.4765  17.4989  17.5030  17.5088  17.5277
    17.5561  17.5647  17.5762  17.5918  17.5955  17.5987  17.6030  17.6180
    17.6319  17.6366  17.6463  17.6565  17.6862  17.6946  17.6960  17.7243
    17.7293  17.7316  17.7569  17.7591  17.7858  17.7896  17.7936  17.7981
    17.8003  17.8175  17.8266  17.8389  17.8420  17.8523  17.8682  17.8727
    17.9123  17.9373  17.9726  17.9766  18.0109  18.0294  18.0475  18.0674
    18.0854  18.0861  18.0998  18.1132  18.1483  18.2230  18.2614  18.3169
    18.6196  18.6205  18.6449  18.6507  18.6550  18.6724  18.6884  18.6995
    18.7041  18.7103  18.7305  18.7374  18.7396  18.7531  18.7686  18.7783
    18.7894  18.7932  18.7932  18.8004  18.8081  18.8716  18.9767  19.0212
    19.0926  19.1203  19.2155  19.2173  19.2393  19.2523  19.2613  19.2807
    19.4785  19.6030  19.6032  19.6178  19.6509  19.6580  19.6790  19.6989
    19.7394  19.7396  19.7632  19.8045  19.8226  19.8286  19.8357  19.8458
    19.8977  19.9020  19.9172  19.9281  19.9736  19.9844  20.0016  20.0073
    20.0278  20.0389  20.0530  20.0542  20.0673  20.0892  20.1835  20.2242
    20.2596  20.2650  20.2821  20.3563  20.3667  20.4163  20.4238  20.4369
    20.4387  20.4549  20.4739  20.5170  20.5545  20.5640  20.5724  20.5740
    20.6971  20.7098  20.7269  20.7411  20.7542  20.7627  20.7810  20.7904
    20.8185  20.8219  20.8521  20.8724  20.8871  20.9047  20.9648  20.9773
    21.0008  21.0243  21.0399  21.0945  21.1103  21.1519  21.1533  21.2022
    21.2504  21.2766  21.3011  21.3108  21.3148  21.3530  21.3550  21.3664
    21.3699  21.3737  21.3850  21.4005  21.7137  21.7214  21.7421  21.7665
    21.8072  21.8100  21.8326  21.9171  22.0435  22.0470  22.1086  22.1181
    22.1700  22.1965  22.2609  22.2622  22.3068  22.3097  22.3395  22.3721
    22.4046  22.4203  22.4252  22.4462  22.4687  22.4765  22.4894  22.5185
    22.5266  22.5307  22.5803  22.5805  22.5974  22.6087  22.6094  22.6309
    22.6414  22.6561  22.6685  22.6710  22.6970  22.7301  22.7335  22.7411
    22.7502  22.7667  22.7820  22.7855  22.7911  22.7934  22.8103  22.8200
    22.8228  22.8304  22.8339  22.8445  22.8565  22.8653  22.8692  22.8735
    22.8762  22.8998  22.9028  22.9049  22.9151  22.9488  22.9611  22.9663
    22.9783  22.9865  22.9881  22.9925  23.2447  23.3276  23.3374  23.3619
    23.4241  23.4557  23.4604  23.5079  23.5250  23.5523  23.5658  23.5818
    23.5858  23.6167  23.6479  23.6583  23.7283  23.7286  23.7640  23.7922
    23.8096  23.8151  23.8398  23.8654  23.8880  23.8969  23.9278  24.0993
    24.1456  24.1588  24.2223  24.2283  24.2716  24.3877  24.4201  24.5035
    24.6050  24.6236  24.6341  24.7638  24.8020  24.8248  24.8275  24.8290
    24.8618  24.9873  25.0273  25.0421  25.0635  25.1021  25.1163  25.1172
    25.1444  25.1615  25.1947  25.2367  25.2746  25.2873  25.3288  25.3424
    25.3642  25.3729  25.3791  25.4225  25.4485  25.4657  25.4834  25.4836

     highest occupied, lowest unoccupied level (ev):     6.1240    9.6824

!    total energy              =  -15480.90797587 Ry
     Harris-Foulkes estimate   =  -15480.90797603 Ry
     estimated scf accuracy    <       0.00000025 Ry

     The total energy is the sum of the following terms:

     one-electron contribution =   -7845.17708833 Ry
     hartree contribution      =    5775.28739940 Ry
     xc contribution           =   -2530.68174406 Ry
     ewald contribution        =  -10886.66711929 Ry
     Hubbard energy            =       6.33057641 Ry

     convergence has been achieved in   9 iterations

     Writing output data file espresso.save

     init_run     :     37.05s CPU     45.27s WALL (       1 calls)
     electrons    :   1078.94s CPU   1198.48s WALL (       1 calls)

     Called by init_run:
     wfcinit      :     27.67s CPU     33.55s WALL (       1 calls)
     potinit      :      3.78s CPU      4.93s WALL (       1 calls)

     Called by electrons:
     c_bands      :   1006.88s CPU   1110.09s WALL (       9 calls)
     sum_band     :     61.67s CPU     74.82s WALL (       9 calls)
     v_of_rho     :      2.81s CPU      3.81s WALL (      10 calls)
     newd         :      8.11s CPU      9.96s WALL (      10 calls)
     mix_rho      :      0.30s CPU      0.57s WALL (       9 calls)

     Called by c_bands:
     init_us_2    :      0.75s CPU      1.00s WALL (      20 calls)
     regterg      :   1004.62s CPU   1105.17s WALL (       9 calls)

     Called by sum_band:
     sum_band:bec :      0.38s CPU      0.39s WALL (       9 calls)
     addusdens    :      7.73s CPU      9.84s WALL (       9 calls)

     Called by *egterg:
     h_psi        :    328.12s CPU    390.24s WALL (      43 calls)
     s_psi        :     50.36s CPU     56.24s WALL (      44 calls)
     g_psi        :      0.06s CPU      0.13s WALL (      33 calls)
     rdiaghg      :    502.55s CPU    505.93s WALL (      42 calls)

     Called by h_psi:
     h_psi:pot    :    184.94s CPU    220.97s WALL (      43 calls)
     h_psi:calbec :     46.67s CPU     55.63s WALL (      43 calls)
     vloc_psi     :     90.56s CPU    111.51s WALL (      43 calls)
     add_vuspsi   :     47.70s CPU     53.83s WALL (      43 calls)
     vhpsi        :    142.45s CPU    168.63s WALL (      43 calls)

     General routines
     calbec       :     84.38s CPU    104.07s WALL (     105 calls)
     fft          :      2.20s CPU      4.32s WALL (     155 calls)
     ffts         :      0.08s CPU      0.19s WALL (      19 calls)
     fftw         :     67.66s CPU     85.57s WALL (   36588 calls)
     interpolate  :      0.31s CPU      0.70s WALL (      19 calls)

     Parallel routines
     fft_scatter  :     32.22s CPU     43.52s WALL (   36762 calls)

     Hubbard U routines
     new_ns       :      5.38s CPU      6.98s WALL (       9 calls)
     vhpsi        :    142.45s CPU    168.63s WALL (      43 calls)

     PWSCF        : 18m36.28s CPU    20m45.51s WALL


   This run was terminated on:   6:52:25  12Jan2023            

=------------------------------------------------------------------------------=
   JOB DONE.
=------------------------------------------------------------------------------=
