
     Program PWSCF v.6.1 starts on 12Jan2023 at  6:10:37 

     This program is part of the open-source Quantum ESPRESSO suite
     for quantum simulation of materials; please cite
         "P. Giannozzi et al., J. Phys.:Condens. Matter 21 395502 (2009);
          URL http://www.quantum-espresso.org", 
     in publications or presentations arising from this work. More details at
     http://www.quantum-espresso.org/quote

     Parallel version (MPI & OpenMP), running on      10 processor cores
     Number of MPI processes:                10
     Threads/MPI process:                     1
     R & G space division:  proc/nbgrp/npool/nimage =      10
     Reading input from espresso.in

     Current dimensions of program PWSCF are:
     Max number of different atomic species (ntypx) = 10
     Max number of k-points (npk) =  40000
     Max angular momentum in pseudopotentials (lmaxx) =  3
               file O.pbe-rrkjus.UPF: wavefunction(s)  2S renormalized

     gamma-point specific algorithms are used

     Subspace diagonalization in iterative solution of the eigenvalue problem:
     a serial algorithm will be used


     Parallelization info
     --------------------
     sticks:   dense  smooth     PW     G-vecs:    dense   smooth      PW
     Min        1384     614    151                84337    24998    3116
     Max        1386     616    154                84344    25004    3122
     Sum       13849    6157   1531               843395   250009   31201


     Title: 
     zno_al2_crystal_opted(SCF)                                                 


     bravais-lattice index     =            0
     lattice parameter (alat)  =      29.8615  a.u.
     unit-cell volume          =   14794.4168 (a.u.)^3
     number of atoms/cell      =          200
     number of atomic types    =            3
     number of electrons       =      1780.00
     number of Kohn-Sham states=         1320
     kinetic-energy cutoff     =      25.0000  Ry
     charge density cutoff     =     225.0000  Ry
     convergence threshold     =      1.0E-06
     mixing beta               =       0.7000
     number of iterations used =            8  plain     mixing
     Exchange-correlation      =  SLA  PW   PBE  PBE ( 1  4  3  4 0 0)

     celldm(1)=  29.861458  celldm(2)=   0.000000  celldm(3)=   0.000000
     celldm(4)=   0.000000  celldm(5)=   0.000000  celldm(6)=   0.000000

     crystal axes: (cart. coord. in units of alat)
               a(1) = (   1.000000   0.000038   0.000004 )  
               a(2) = (  -0.499967   0.866045  -0.000004 )  
               a(3) = (   0.000003  -0.000002   0.641527 )  

     reciprocal axes: (cart. coord. in units 2 pi/alat)
               b(1) = (  0.999978  0.577286 -0.000003 )  
               b(2) = ( -0.000044  1.154649  0.000003 )  
               b(3) = ( -0.000007  0.000004  1.558781 )  


     PseudoPot. # 1 for Zn read from file:
     C:\Users\Dimas\.burai\.pseudopot/Zn.pbe-van.UPF
     MD5 check sum: 8a117cd81793830d6ad9bd6443d05479
     Pseudo is Ultrasoft, Zval = 12.0
     Generated by new atomic code, or converted to UPF format
     Using radial grid of  869 points,  6 beta functions with: 
                l(1) =   0
                l(2) =   0
                l(3) =   1
                l(4) =   1
                l(5) =   2
                l(6) =   2
     Q(r) pseudized with  8 coefficients,  rinner =    0.800   0.800   0.800
                                                       0.800   0.800

     PseudoPot. # 2 for O  read from file:
     C:\Users\Dimas\.burai\.pseudopot/O.pbe-rrkjus.UPF
     MD5 check sum: 390ba29e75625707450f3bd3f0eb6be9
     Pseudo is Ultrasoft, Zval =  6.0
     Generated by new atomic code, or converted to UPF format
     Using radial grid of 1269 points,  4 beta functions with: 
                l(1) =   0
                l(2) =   0
                l(3) =   1
                l(4) =   1
     Q(r) pseudized with 0 coefficients 


     PseudoPot. # 3 for Al read from file:
     C:\Users\Dimas\.burai\.pseudopot/Al.pbe-rrkj.UPF
     MD5 check sum: b5320f8fdc07ab0d74f109f4aa58256b
     Pseudo is Norm-conserving, Zval =  3.0
     Generated by new atomic code, or converted to UPF format
     Using radial grid of  879 points,  4 beta functions with: 
                l(1) =   0
                l(2) =   0
                l(3) =   1
                l(4) =   1

     atomic species   valence    mass     pseudopotential
        Zn            12.00    65.39000     Zn( 1.00)
        O              6.00    15.99940     O ( 1.00)
        Al             3.00    26.98154     Al( 1.00)


     Simplified LDA+U calculation (l_max = 2) with parameters (eV):
     atomic species    L          U    alpha       J0     beta
        Zn             2    10.5000   0.0000   0.0000   0.0000
        O              1     7.0000   0.0000   0.0000   0.0000



      2 Sym. Ops. (no inversion) found



   Cartesian axes

     site n.     atom                  positions (alat units)
         1           Zn  tau(   1) = (   0.1000149   0.0580141   0.1596545  )
         2           Zn  tau(   2) = (   0.0002273   0.1153685   0.6411790  )
         3           O   tau(   3) = (   0.1001440   0.0579090   0.2819700  )
         4           O   tau(   4) = (  -0.0004855   0.1159457   0.1219437  )
         5           Zn  tau(   5) = (   0.0999443   0.0576998   0.4806612  )
         6           Zn  tau(   6) = (   0.0000788   0.1152255   0.3199741  )
         7           O   tau(   7) = (   0.1000739   0.0577341   0.6029259  )
         8           O   tau(   8) = (  -0.0001451   0.1157197   0.4423646  )
         9           Zn  tau(   9) = (  -0.0004804   0.2312386   0.1596479  )
        10           Zn  tau(  10) = (  -0.0995125   0.2893941   0.6412634  )
        11           O   tau(  11) = (  -0.0005979   0.2311777   0.2819954  )
        12           O   tau(  12) = (  -0.1017613   0.2895989   0.1221936  )
        13           Zn  tau(  13) = (   0.0000460   0.2304428   0.4811703  )
        14           Zn  tau(  14) = (  -0.1004475   0.2878715   0.3205012  )
        15           O   tau(  15) = (  -0.0001479   0.2314583   0.6034088  )
        16           O   tau(  16) = (  -0.0996544   0.2899818   0.4429693  )
        17           Zn  tau(  17) = (  -0.0993133   0.4044935   0.1613502  )
        18           Zn  tau(  18) = (  -0.1998348   0.4620417   0.0003283  )
        19           O   tau(  19) = (  -0.0998162   0.4043173   0.2838043  )
        20           O   tau(  20) = (  -0.2002188   0.4605076   0.1226797  )
        21           Zn  tau(  21) = (  -0.0999398   0.4043194   0.4811033  )
        22           Zn  tau(  22) = (  -0.2009884   0.4613393   0.3205028  )
        23           O   tau(  23) = (  -0.0993423   0.4053844   0.6029062  )
        24           O   tau(  24) = (  -0.1993843   0.4620415   0.4428683  )
        25           Zn  tau(  25) = (  -0.1996376   0.5768138   0.1606533  )
        26           Zn  tau(  26) = (  -0.2996168   0.6351096   0.6414964  )
        27           O   tau(  27) = (  -0.1994106   0.5770967   0.2833171  )
        28           O   tau(  28) = (  -0.2991421   0.6342310   0.1222618  )
        29           Zn  tau(  29) = (  -0.1999877   0.5771585   0.4811448  )
        30           Zn  tau(  30) = (  -0.3004762   0.6354239   0.3199971  )
        31           O   tau(  31) = (  -0.1986927   0.5772077   0.6029970  )
        32           O   tau(  32) = (  -0.2980916   0.6351067   0.4425178  )
        33           Zn  tau(  33) = (  -0.2998980   0.7505355   0.1596619  )
        34           Zn  tau(  34) = (  -0.3999211   0.8082838   0.6411985  )
        35           O   tau(  35) = (  -0.2998524   0.7505092   0.2820139  )
        36           O   tau(  36) = (  -0.3998919   0.8082670   0.1219388  )
        37           Zn  tau(  37) = (  -0.3004470   0.7508525   0.4811047  )
        38           Zn  tau(  38) = (  -0.4001700   0.8084276   0.3200161  )
        39           O   tau(  39) = (  -0.2994910   0.7503005   0.6032707  )
        40           O   tau(  40) = (  -0.3998455   0.8082402   0.4423893  )
        41           Zn  tau(  41) = (   0.3002519   0.0579162   0.1597696  )
        42           Zn  tau(  42) = (   0.1999978   0.1154446   0.6408815  )
        43           O   tau(  43) = (   0.3006470   0.0579150   0.2822012  )
        44           O   tau(  44) = (   0.2005430   0.1158937   0.1217605  )
        45           Zn  tau(  45) = (   0.2997023   0.0570111   0.4804074  )
        46           Zn  tau(  46) = (   0.1999984   0.1154973   0.3201200  )
        47           O   tau(  47) = (   0.3002239   0.0571615   0.6027774  )
        48           O   tau(  48) = (   0.2002224   0.1156226   0.4425490  )
        49           Zn  tau(  49) = (   0.2004576   0.2313866   0.1596578  )
        50           Zn  tau(  50) = (   0.1000474   0.2890657   0.6414112  )
        51           O   tau(  51) = (   0.2005911   0.2313136   0.2820823  )
        52           O   tau(  52) = (   0.0998417   0.2893936   0.1222561  )
        53           Zn  tau(  53) = (   0.1993295   0.2311805   0.4804129  )
        54           Zn  tau(  54) = (   0.1000525   0.2878826   0.3199061  )
        55           O   tau(  55) = (   0.1997221   0.2313171   0.6028342  )
        56           O   tau(  56) = (   0.0989111   0.2901826   0.4424839  )
        57           Zn  tau(  57) = (   0.0998192   0.4043132   0.1609656  )
        58           Zn  tau(  58) = (   0.0002102   0.4621343   0.0005698  )
        59           O   tau(  59) = (   0.0993733   0.4045216   0.2835267  )
        60           O   tau(  60) = (  -0.0001347   0.4631273   0.1218337  )
        61           Zn  tau(  61) = (   0.1002277   0.4041981   0.4811433  )
        62           Zn  tau(  62) = (  -0.0000409   0.4613600   0.3207802  )
        63           O   tau(  63) = (   0.0993737   0.4052517   0.6028865  )
        64           O   tau(  64) = (  -0.0000704   0.4713099   0.4460140  )
        65           Zn  tau(  65) = (   0.0000954   0.5773342   0.1628180  )
        66           Zn  tau(  66) = (  -0.0999411   0.6350903   0.0007068  )
        67           O   tau(  67) = (  -0.0000421   0.5774136   0.2847627  )
        68           O   tau(  68) = (  -0.0989146   0.6344976   0.1220086  )
        69           Al  tau(  69) = (  -0.0000262   0.5774044   0.4809904  )
        70           Zn  tau(  70) = (  -0.1006342   0.6354904   0.3204798  )
        71           O   tau(  71) = (  -0.0000902   0.5774413   0.5931210  )
        72           O   tau(  72) = (  -0.0918918   0.6304430   0.4458727  )
        73           Zn  tau(  73) = (  -0.0993205   0.7505683   0.1606533  )
        74           Zn  tau(  74) = (  -0.1997956   0.8080049   0.6414964  )
        75           O   tau(  75) = (  -0.0994519   0.7502302   0.2833171  )
        76           O   tau(  76) = (  -0.1987974   0.8080331   0.1222618  )
        77           Zn  tau(  77) = (  -0.0997940   0.7506991   0.4811448  )
        78           Zn  tau(  78) = (  -0.2004975   0.8085920   0.3199971  )
        79           O   tau(  79) = (  -0.0991890   0.7495530   0.6029970  )
        80           O   tau(  80) = (  -0.1990306   0.8066855   0.4425178  )
        81           Zn  tau(  81) = (   0.4998434   0.0579455   0.1603588  )
        82           Zn  tau(  82) = (   0.3994043   0.1152383   0.6407676  )
        83           O   tau(  83) = (   0.5006835   0.0589126   0.2821790  )
        84           O   tau(  84) = (   0.4011740   0.1159949   0.1216543  )
        85           Zn  tau(  85) = (   0.5002128   0.0574545   0.4815271  )
        86           Zn  tau(  86) = (   0.3997294   0.1155778   0.3213372  )
        87           O   tau(  87) = (   0.5006689   0.0576369   0.6041993  )
        88           O   tau(  88) = (   0.4005229   0.1152068   0.4435148  )
        89           Zn  tau(  89) = (   0.3999396   0.2307638   0.1603220  )
        90           Zn  tau(  90) = (   0.2995609   0.2888785   0.6407609  )
        91           O   tau(  91) = (   0.4014606   0.2309220   0.2821050  )
        92           O   tau(  92) = (   0.3017301   0.2889432   0.1217656  )
        93           Zn  tau(  93) = (   0.3999320   0.2309397   0.4814370  )
        94           Zn  tau(  94) = (   0.3006425   0.2883216   0.3207275  )
        95           O   tau(  95) = (   0.4006311   0.2312572   0.6041073  )
        96           O   tau(  96) = (   0.3001926   0.2886703   0.4430282  )
        97           Zn  tau(  97) = (   0.2996717   0.4043737   0.1603968  )
        98           Zn  tau(  98) = (   0.2001407   0.4618380   0.0003679  )
        99           O   tau(  99) = (   0.3004673   0.4039144   0.2825955  )
       100           O   tau( 100) = (   0.1995488   0.4621797   0.1225942  )
       101           Zn  tau( 101) = (   0.2995607   0.4044378   0.4805162  )
       102           Zn  tau( 102) = (   0.2006476   0.4615453   0.3201954  )
       103           O   tau( 103) = (   0.2995762   0.4044289   0.6028836  )
       104           O   tau( 104) = (   0.1989262   0.4625392   0.4425507  )
       105           Zn  tau( 105) = (   0.1997979   0.5774813   0.1609656  )
       106           Zn  tau( 106) = (   0.0999189   0.6348347   0.0005698  )
       107           O   tau( 107) = (   0.1993944   0.5777633   0.2835267  )
       108           O   tau( 108) = (   0.0988864   0.6346369   0.1218337  )
       109           Zn  tau( 109) = (   0.2001018   0.5771852   0.4811433  )
       110           Zn  tau( 110) = (   0.1004638   0.6354393   0.3207802  )
       111           O   tau( 111) = (   0.1987623   0.5773979   0.6028865  )
       112           O   tau( 112) = (   0.0918322   0.6304899   0.4460140  )
       113           Zn  tau( 113) = (   0.1000755   0.7498450   0.1613502  )
       114           Zn  tau( 114) = (  -0.0000235   0.8081250   0.0003283  )
       115           O   tau( 115) = (   0.0999766   0.7503686   0.2838043  )
       116           O   tau( 116) = (   0.0011131   0.8092247   0.1226797  )
       117           Zn  tau( 117) = (   0.0999130   0.7504746   0.4811033  )
       118           Zn  tau( 118) = (   0.0000080   0.8094753   0.3205028  )
       119           O   tau( 119) = (   0.0992895   0.7494246   0.6029062  )
       120           O   tau( 120) = (   0.0002020   0.8077350   0.4428683  )
       121           Zn  tau( 121) = (   0.7002464   0.0578146   0.1603879  )
       122           Zn  tau( 122) = (   0.6000243   0.1150901   0.6413517  )
       123           O   tau( 123) = (   0.6991975   0.0588977   0.2822447  )
       124           O   tau( 124) = (   0.6000098   0.1248338   0.1251617  )
       125           Zn  tau( 125) = (   0.6999883   0.0571616   0.4814132  )
       126           Zn  tau( 126) = (   0.5999729   0.1159258   0.3215479  )
       127           O   tau( 127) = (   0.6992029   0.0575856   0.6040802  )
       128           O   tau( 128) = (   0.6000899   0.1161827   0.4427920  )
       129           Al  tau( 129) = (   0.5999741   0.2309941   0.1602151  )
       130           Zn  tau( 130) = (   0.4995729   0.2889607   0.6413982  )
       131           O   tau( 131) = (   0.5999941   0.2309825   0.2723739  )
       132           O   tau( 132) = (   0.5081520   0.2840076   0.1251551  )
       133           Zn  tau( 133) = (   0.6002575   0.2308304   0.4832644  )
       134           Zn  tau( 134) = (   0.5001010   0.2886558   0.3216009  )
       135           O   tau( 135) = (   0.6000796   0.2309332   0.6053213  )
       136           O   tau( 136) = (   0.5011380   0.2880571   0.4428020  )
       137           Zn  tau( 137) = (   0.5001562   0.4043442   0.1603220  )
       138           Zn  tau( 138) = (   0.3996381   0.4622173   0.6407609  )
       139           O   tau( 139) = (   0.5007797   0.4029478   0.2821050  )
       140           O   tau( 140) = (   0.4006667   0.4603064   0.1217656  )
       141           Zn  tau( 141) = (   0.5000002   0.4042628   0.4814370  )
       142           Zn  tau( 142) = (   0.4006611   0.4615590   0.3207275  )
       143           O   tau( 143) = (   0.5000747   0.4034986   0.6041073  )
       144           O   tau( 144) = (   0.4001342   0.4617744   0.4430282  )
       145           Zn  tau( 145) = (   0.3998759   0.5767892   0.1596578  )
       146           Zn  tau( 146) = (   0.2997192   0.6349074   0.6414112  )
       147           O   tau( 147) = (   0.4000059   0.5767101   0.2820823  )
       148           O   tau( 148) = (   0.2993324   0.6349217   0.1222561  )
       149           Zn  tau( 149) = (   0.3994903   0.5778692   0.4804129  )
       150           Zn  tau( 150) = (   0.3007463   0.6354946   0.3199061  )
       151           O   tau( 151) = (   0.3995683   0.5774610   0.6028342  )
       152           O   tau( 152) = (   0.2981839   0.6353331   0.4424839  )
       153           Zn  tau( 153) = (   0.2995350   0.7508807   0.1596479  )
       154           Zn  tau( 154) = (   0.1996549   0.8075673   0.6412634  )
       155           O   tau( 155) = (   0.2995291   0.7510128   0.2819954  )
       156           O   tau( 156) = (   0.1983531   0.8094124   0.1221936  )
       157           Zn  tau( 157) = (   0.3004875   0.7508227   0.4811703  )
       158           Zn  tau( 158) = (   0.2005060   0.8091383   0.3205012  )
       159           O   tau( 159) = (   0.2995110   0.7504829   0.6034088  )
       160           O   tau( 160) = (   0.1990750   0.8073963   0.4429693  )
       161           Zn  tau( 161) = (   0.8996974   0.0579487   0.1597569  )
       162           Zn  tau( 162) = (   0.8003703   0.1152953   0.6406860  )
       163           O   tau( 163) = (   0.8993845   0.0581294   0.2820762  )
       164           O   tau( 164) = (   0.7987690   0.1162198   0.1216163  )
       165           Zn  tau( 165) = (   0.9002028   0.0576569   0.4807334  )
       166           Zn  tau( 166) = (   0.8002414   0.1153697   0.3212627  )
       167           O   tau( 167) = (   0.8998884   0.0578385   0.6030213  )
       168           O   tau( 168) = (   0.7993344   0.1158933   0.4435127  )
       169           Zn  tau( 169) = (   0.8000881   0.2307454   0.1603879  )
       170           Zn  tau( 170) = (   0.7003749   0.2889026   0.6413517  )
       171           O   tau( 171) = (   0.7986256   0.2311122   0.2822447  )
       172           O   tau( 172) = (   0.6919295   0.2840432   0.1251617  )
       173           Zn  tau( 173) = (   0.8005245   0.2312954   0.4814132  )
       174           Zn  tau( 174) = (   0.6996255   0.2885292   0.3215479  )
       175           O   tau( 175) = (   0.7997646   0.2317636   0.6040802  )
       176           O   tau( 176) = (   0.6994615   0.2882994   0.4427920  )
       177           Zn  tau( 177) = (   0.6997732   0.4042341   0.1603588  )
       178           Zn  tau( 178) = (   0.5999366   0.4625705   0.6407676  )
       179           O   tau( 179) = (   0.6993557   0.4030230   0.2821790  )
       180           O   tau( 180) = (   0.6001662   0.4606596   0.1216543  )
       181           Zn  tau( 181) = (   0.7003832   0.4041596   0.4815271  )
       182           Zn  tau( 182) = (   0.5998052   0.4621192   0.3213372  )
       183           O   tau( 183) = (   0.7004532   0.4036735   0.6041993  )
       184           O   tau( 184) = (   0.6005232   0.4616175   0.4435148  )
       185           Zn  tau( 185) = (   0.6000029   0.5771000   0.1597696  )
       186           Zn  tau( 186) = (   0.5000547   0.6351585   0.6408815  )
       187           O   tau( 187) = (   0.6002014   0.5767585   0.2822012  )
       188           O   tau( 188) = (   0.4999384   0.6344618   0.1217605  )
       189           Zn  tau( 189) = (   0.6005118   0.5780285   0.4804074  )
       190           Zn  tau( 190) = (   0.5000093   0.6351316   0.3201200  )
       191           O   tau( 191) = (   0.6006423   0.5775016   0.6027774  )
       192           O   tau( 192) = (   0.5000128   0.6348749   0.4425490  )
       193           Zn  tau( 193) = (   0.4997995   0.7504614   0.1596545  )
       194           Zn  tau( 194) = (   0.4002354   0.8082029   0.6411790  )
       195           O   tau( 195) = (   0.4999551   0.7504022   0.2819700  )
       196           O   tau( 196) = (   0.3993791   0.8085315   0.1219437  )
       197           Zn  tau( 197) = (   0.5000365   0.7506797   0.4806612  )
       198           Zn  tau( 198) = (   0.4002850   0.8084029   0.3199741  )
       199           O   tau( 199) = (   0.5000715   0.7505503   0.6029259  )
       200           O   tau( 200) = (   0.3997450   0.8083497   0.4423646  )

     number of k points=     1
                       cart. coord. in units 2pi/alat
        k(    1) = (   0.0000000   0.0000000   0.0000000), wk =   2.0000000

     Dense  grid:   421698 G-vectors     FFT dimensions: ( 144, 144,  96)

     Smooth grid:   125005 G-vectors     FFT dimensions: (  96,  96,  64)

     Estimated max dynamical RAM per process >     846.80MB

     Estimated total allocated dynamical RAM >    8468.02MB

     Initial potential from superposition of free atoms

     starting charge 1781.97992, renormalised to 1780.00000
     Number of +U iterations with fixed ns =  0
     Starting occupations:
 --- enter write_ns ---
 LDA+U parameters:
U( 1)     = 10.50000000
alpha( 1) =  0.00000000
U( 2)     =  7.00000000
alpha( 2) =  0.00000000
atom    1   Tr[ns(na)] =  10.00000
    eigenvalues: 
  1.000  1.000  1.000  1.000  1.000
    eigenvectors:
  1.000  0.000  0.000  0.000  0.000
  0.000  1.000  0.000  0.000  0.000
  0.000  0.000  1.000  0.000  0.000
  0.000  0.000  0.000  1.000  0.000
  0.000  0.000  0.000  0.000  1.000
    occupations:
  1.000  0.000  0.000  0.000  0.000
  0.000  1.000  0.000  0.000  0.000
  0.000  0.000  1.000  0.000  0.000
  0.000  0.000  0.000  1.000  0.000
  0.000  0.000  0.000  0.000  1.000
atom    2   Tr[ns(na)] =  10.00000
    eigenvalues: 
  1.000  1.000  1.000  1.000  1.000
    eigenvectors:
  1.000  0.000  0.000  0.000  0.000
  0.000  1.000  0.000  0.000  0.000
  0.000  0.000  1.000  0.000  0.000
  0.000  0.000  0.000  1.000  0.000
  0.000  0.000  0.000  0.000  1.000
    occupations:
  1.000  0.000  0.000  0.000  0.000
  0.000  1.000  0.000  0.000  0.000
  0.000  0.000  1.000  0.000  0.000
  0.000  0.000  0.000  1.000  0.000
  0.000  0.000  0.000  0.000  1.000
atom    3   Tr[ns(na)] =   4.00000
    eigenvalues: 
  0.667  0.667  0.667
    eigenvectors:
  1.000  0.000  0.000
  0.000  1.000  0.000
  0.000  0.000  1.000
    occupations:
  0.667  0.000  0.000
  0.000  0.667  0.000
  0.000  0.000  0.667
atom    4   Tr[ns(na)] =   4.00000
    eigenvalues: 
  0.667  0.667  0.667
    eigenvectors:
  1.000  0.000  0.000
  0.000  1.000  0.000
  0.000  0.000  1.000
    occupations:
  0.667  0.000  0.000
  0.000  0.667  0.000
  0.000  0.000  0.667
atom    5   Tr[ns(na)] =  10.00000
    eigenvalues: 
  1.000  1.000  1.000  1.000  1.000
    eigenvectors:
  1.000  0.000  0.000  0.000  0.000
  0.000  1.000  0.000  0.000  0.000
  0.000  0.000  1.000  0.000  0.000
  0.000  0.000  0.000  1.000  0.000
  0.000  0.000  0.000  0.000  1.000
    occupations:
  1.000  0.000  0.000  0.000  0.000
  0.000  1.000  0.000  0.000  0.000
  0.000  0.000  1.000  0.000  0.000
  0.000  0.000  0.000  1.000  0.000
  0.000  0.000  0.000  0.000  1.000
atom    6   Tr[ns(na)] =  10.00000
    eigenvalues: 
  1.000  1.000  1.000  1.000  1.000
    eigenvectors:
  1.000  0.000  0.000  0.000  0.000
  0.000  1.000  0.000  0.000  0.000
  0.000  0.000  1.000  0.000  0.000
  0.000  0.000  0.000  1.000  0.000
  0.000  0.000  0.000  0.000  1.000
    occupations:
  1.000  0.000  0.000  0.000  0.000
  0.000  1.000  0.000  0.000  0.000
  0.000  0.000  1.000  0.000  0.000
  0.000  0.000  0.000  1.000  0.000
  0.000  0.000  0.000  0.000  1.000
atom    7   Tr[ns(na)] =   4.00000
    eigenvalues: 
  0.667  0.667  0.667
    eigenvectors:
  1.000  0.000  0.000
  0.000  1.000  0.000
  0.000  0.000  1.000
    occupations:
  0.667  0.000  0.000
  0.000  0.667  0.000
  0.000  0.000  0.667
atom    8   Tr[ns(na)] =   4.00000
    eigenvalues: 
  0.667  0.667  0.667
    eigenvectors:
  1.000  0.000  0.000
  0.000  1.000  0.000
  0.000  0.000  1.000
    occupations:
  0.667  0.000  0.000
  0.000  0.667  0.000
  0.000  0.000  0.667
atom    9   Tr[ns(na)] =  10.00000
    eigenvalues: 
  1.000  1.000  1.000  1.000  1.000
    eigenvectors:
  1.000  0.000  0.000  0.000  0.000
  0.000  1.000  0.000  0.000  0.000
  0.000  0.000  1.000  0.000  0.000
  0.000  0.000  0.000  1.000  0.000
  0.000  0.000  0.000  0.000  1.000
    occupations:
  1.000  0.000  0.000  0.000  0.000
  0.000  1.000  0.000  0.000  0.000
  0.000  0.000  1.000  0.000  0.000
  0.000  0.000  0.000  1.000  0.000
  0.000  0.000  0.000  0.000  1.000
atom   10   Tr[ns(na)] =  10.00000
    eigenvalues: 
  1.000  1.000  1.000  1.000  1.000
    eigenvectors:
  1.000  0.000  0.000  0.000  0.000
  0.000  1.000  0.000  0.000  0.000
  0.000  0.000  1.000  0.000  0.000
  0.000  0.000  0.000  1.000  0.000
  0.000  0.000  0.000  0.000  1.000
    occupations:
  1.000  0.000  0.000  0.000  0.000
  0.000  1.000  0.000  0.000  0.000
  0.000  0.000  1.000  0.000  0.000
  0.000  0.000  0.000  1.000  0.000
  0.000  0.000  0.000  0.000  1.000
atom   11   Tr[ns(na)] =   4.00000
    eigenvalues: 
  0.667  0.667  0.667
    eigenvectors:
  1.000  0.000  0.000
  0.000  1.000  0.000
  0.000  0.000  1.000
    occupations:
  0.667  0.000  0.000
  0.000  0.667  0.000
  0.000  0.000  0.667
atom   12   Tr[ns(na)] =   4.00000
    eigenvalues: 
  0.667  0.667  0.667
    eigenvectors:
  1.000  0.000  0.000
  0.000  1.000  0.000
  0.000  0.000  1.000
    occupations:
  0.667  0.000  0.000
  0.000  0.667  0.000
  0.000  0.000  0.667
atom   13   Tr[ns(na)] =  10.00000
    eigenvalues: 
  1.000  1.000  1.000  1.000  1.000
    eigenvectors:
  1.000  0.000  0.000  0.000  0.000
  0.000  1.000  0.000  0.000  0.000
  0.000  0.000  1.000  0.000  0.000
  0.000  0.000  0.000  1.000  0.000
  0.000  0.000  0.000  0.000  1.000
    occupations:
  1.000  0.000  0.000  0.000  0.000
  0.000  1.000  0.000  0.000  0.000
  0.000  0.000  1.000  0.000  0.000
  0.000  0.000  0.000  1.000  0.000
  0.000  0.000  0.000  0.000  1.000
atom   14   Tr[ns(na)] =  10.00000
    eigenvalues: 
  1.000  1.000  1.000  1.000  1.000
    eigenvectors:
  1.000  0.000  0.000  0.000  0.000
  0.000  1.000  0.000  0.000  0.000
  0.000  0.000  1.000  0.000  0.000
  0.000  0.000  0.000  1.000  0.000
  0.000  0.000  0.000  0.000  1.000
    occupations:
  1.000  0.000  0.000  0.000  0.000
  0.000  1.000  0.000  0.000  0.000
  0.000  0.000  1.000  0.000  0.000
  0.000  0.000  0.000  1.000  0.000
  0.000  0.000  0.000  0.000  1.000
atom   15   Tr[ns(na)] =   4.00000
    eigenvalues: 
  0.667  0.667  0.667
    eigenvectors:
  1.000  0.000  0.000
  0.000  1.000  0.000
  0.000  0.000  1.000
    occupations:
  0.667  0.000  0.000
  0.000  0.667  0.000
  0.000  0.000  0.667
atom   16   Tr[ns(na)] =   4.00000
    eigenvalues: 
  0.667  0.667  0.667
    eigenvectors:
  1.000  0.000  0.000
  0.000  1.000  0.000
  0.000  0.000  1.000
    occupations:
  0.667  0.000  0.000
  0.000  0.667  0.000
  0.000  0.000  0.667
atom   17   Tr[ns(na)] =  10.00000
    eigenvalues: 
  1.000  1.000  1.000  1.000  1.000
    eigenvectors:
  1.000  0.000  0.000  0.000  0.000
  0.000  1.000  0.000  0.000  0.000
  0.000  0.000  1.000  0.000  0.000
  0.000  0.000  0.000  1.000  0.000
  0.000  0.000  0.000  0.000  1.000
    occupations:
  1.000  0.000  0.000  0.000  0.000
  0.000  1.000  0.000  0.000  0.000
  0.000  0.000  1.000  0.000  0.000
  0.000  0.000  0.000  1.000  0.000
  0.000  0.000  0.000  0.000  1.000
atom   18   Tr[ns(na)] =  10.00000
    eigenvalues: 
  1.000  1.000  1.000  1.000  1.000
    eigenvectors:
  1.000  0.000  0.000  0.000  0.000
  0.000  1.000  0.000  0.000  0.000
  0.000  0.000  1.000  0.000  0.000
  0.000  0.000  0.000  1.000  0.000
  0.000  0.000  0.000  0.000  1.000
    occupations:
  1.000  0.000  0.000  0.000  0.000
  0.000  1.000  0.000  0.000  0.000
  0.000  0.000  1.000  0.000  0.000
  0.000  0.000  0.000  1.000  0.000
  0.000  0.000  0.000  0.000  1.000
atom   19   Tr[ns(na)] =   4.00000
    eigenvalues: 
  0.667  0.667  0.667
    eigenvectors:
  1.000  0.000  0.000
  0.000  1.000  0.000
  0.000  0.000  1.000
    occupations:
  0.667  0.000  0.000
  0.000  0.667  0.000
  0.000  0.000  0.667
atom   20   Tr[ns(na)] =   4.00000
    eigenvalues: 
  0.667  0.667  0.667
    eigenvectors:
  1.000  0.000  0.000
  0.000  1.000  0.000
  0.000  0.000  1.000
    occupations:
  0.667  0.000  0.000
  0.000  0.667  0.000
  0.000  0.000  0.667
atom   21   Tr[ns(na)] =  10.00000
    eigenvalues: 
  1.000  1.000  1.000  1.000  1.000
    eigenvectors:
  1.000  0.000  0.000  0.000  0.000
  0.000  1.000  0.000  0.000  0.000
  0.000  0.000  1.000  0.000  0.000
  0.000  0.000  0.000  1.000  0.000
  0.000  0.000  0.000  0.000  1.000
    occupations:
  1.000  0.000  0.000  0.000  0.000
  0.000  1.000  0.000  0.000  0.000
  0.000  0.000  1.000  0.000  0.000
  0.000  0.000  0.000  1.000  0.000
  0.000  0.000  0.000  0.000  1.000
atom   22   Tr[ns(na)] =  10.00000
    eigenvalues: 
  1.000  1.000  1.000  1.000  1.000
    eigenvectors:
  1.000  0.000  0.000  0.000  0.000
  0.000  1.000  0.000  0.000  0.000
  0.000  0.000  1.000  0.000  0.000
  0.000  0.000  0.000  1.000  0.000
  0.000  0.000  0.000  0.000  1.000
    occupations:
  1.000  0.000  0.000  0.000  0.000
  0.000  1.000  0.000  0.000  0.000
  0.000  0.000  1.000  0.000  0.000
  0.000  0.000  0.000  1.000  0.000
  0.000  0.000  0.000  0.000  1.000
atom   23   Tr[ns(na)] =   4.00000
    eigenvalues: 
  0.667  0.667  0.667
    eigenvectors:
  1.000  0.000  0.000
  0.000  1.000  0.000
  0.000  0.000  1.000
    occupations:
  0.667  0.000  0.000
  0.000  0.667  0.000
  0.000  0.000  0.667
atom   24   Tr[ns(na)] =   4.00000
    eigenvalues: 
  0.667  0.667  0.667
    eigenvectors:
  1.000  0.000  0.000
  0.000  1.000  0.000
  0.000  0.000  1.000
    occupations:
  0.667  0.000  0.000
  0.000  0.667  0.000
  0.000  0.000  0.667
atom   25   Tr[ns(na)] =  10.00000
    eigenvalues: 
  1.000  1.000  1.000  1.000  1.000
    eigenvectors:
  1.000  0.000  0.000  0.000  0.000
  0.000  1.000  0.000  0.000  0.000
  0.000  0.000  1.000  0.000  0.000
  0.000  0.000  0.000  1.000  0.000
  0.000  0.000  0.000  0.000  1.000
    occupations:
  1.000  0.000  0.000  0.000  0.000
  0.000  1.000  0.000  0.000  0.000
  0.000  0.000  1.000  0.000  0.000
  0.000  0.000  0.000  1.000  0.000
  0.000  0.000  0.000  0.000  1.000
atom   26   Tr[ns(na)] =  10.00000
    eigenvalues: 
  1.000  1.000  1.000  1.000  1.000
    eigenvectors:
  1.000  0.000  0.000  0.000  0.000
  0.000  1.000  0.000  0.000  0.000
  0.000  0.000  1.000  0.000  0.000
  0.000  0.000  0.000  1.000  0.000
  0.000  0.000  0.000  0.000  1.000
    occupations:
  1.000  0.000  0.000  0.000  0.000
  0.000  1.000  0.000  0.000  0.000
  0.000  0.000  1.000  0.000  0.000
  0.000  0.000  0.000  1.000  0.000
  0.000  0.000  0.000  0.000  1.000
atom   27   Tr[ns(na)] =   4.00000
    eigenvalues: 
  0.667  0.667  0.667
    eigenvectors:
  1.000  0.000  0.000
  0.000  1.000  0.000
  0.000  0.000  1.000
    occupations:
  0.667  0.000  0.000
  0.000  0.667  0.000
  0.000  0.000  0.667
atom   28   Tr[ns(na)] =   4.00000
    eigenvalues: 
  0.667  0.667  0.667
    eigenvectors:
  1.000  0.000  0.000
  0.000  1.000  0.000
  0.000  0.000  1.000
    occupations:
  0.667  0.000  0.000
  0.000  0.667  0.000
  0.000  0.000  0.667
atom   29   Tr[ns(na)] =  10.00000
    eigenvalues: 
  1.000  1.000  1.000  1.000  1.000
    eigenvectors:
  1.000  0.000  0.000  0.000  0.000
  0.000  1.000  0.000  0.000  0.000
  0.000  0.000  1.000  0.000  0.000
  0.000  0.000  0.000  1.000  0.000
  0.000  0.000  0.000  0.000  1.000
    occupations:
  1.000  0.000  0.000  0.000  0.000
  0.000  1.000  0.000  0.000  0.000
  0.000  0.000  1.000  0.000  0.000
  0.000  0.000  0.000  1.000  0.000
  0.000  0.000  0.000  0.000  1.000
atom   30   Tr[ns(na)] =  10.00000
    eigenvalues: 
  1.000  1.000  1.000  1.000  1.000
    eigenvectors:
  1.000  0.000  0.000  0.000  0.000
  0.000  1.000  0.000  0.000  0.000
  0.000  0.000  1.000  0.000  0.000
  0.000  0.000  0.000  1.000  0.000
  0.000  0.000  0.000  0.000  1.000
    occupations:
  1.000  0.000  0.000  0.000  0.000
  0.000  1.000  0.000  0.000  0.000
  0.000  0.000  1.000  0.000  0.000
  0.000  0.000  0.000  1.000  0.000
  0.000  0.000  0.000  0.000  1.000
atom   31   Tr[ns(na)] =   4.00000
    eigenvalues: 
  0.667  0.667  0.667
    eigenvectors:
  1.000  0.000  0.000
  0.000  1.000  0.000
  0.000  0.000  1.000
    occupations:
  0.667  0.000  0.000
  0.000  0.667  0.000
  0.000  0.000  0.667
atom   32   Tr[ns(na)] =   4.00000
    eigenvalues: 
  0.667  0.667  0.667
    eigenvectors:
  1.000  0.000  0.000
  0.000  1.000  0.000
  0.000  0.000  1.000
    occupations:
  0.667  0.000  0.000
  0.000  0.667  0.000
  0.000  0.000  0.667
atom   33   Tr[ns(na)] =  10.00000
    eigenvalues: 
  1.000  1.000  1.000  1.000  1.000
    eigenvectors:
  1.000  0.000  0.000  0.000  0.000
  0.000  1.000  0.000  0.000  0.000
  0.000  0.000  1.000  0.000  0.000
  0.000  0.000  0.000  1.000  0.000
  0.000  0.000  0.000  0.000  1.000
    occupations:
  1.000  0.000  0.000  0.000  0.000
  0.000  1.000  0.000  0.000  0.000
  0.000  0.000  1.000  0.000  0.000
  0.000  0.000  0.000  1.000  0.000
  0.000  0.000  0.000  0.000  1.000
atom   34   Tr[ns(na)] =  10.00000
    eigenvalues: 
  1.000  1.000  1.000  1.000  1.000
    eigenvectors:
  1.000  0.000  0.000  0.000  0.000
  0.000  1.000  0.000  0.000  0.000
  0.000  0.000  1.000  0.000  0.000
  0.000  0.000  0.000  1.000  0.000
  0.000  0.000  0.000  0.000  1.000
    occupations:
  1.000  0.000  0.000  0.000  0.000
  0.000  1.000  0.000  0.000  0.000
  0.000  0.000  1.000  0.000  0.000
  0.000  0.000  0.000  1.000  0.000
  0.000  0.000  0.000  0.000  1.000
atom   35   Tr[ns(na)] =   4.00000
    eigenvalues: 
  0.667  0.667  0.667
    eigenvectors:
  1.000  0.000  0.000
  0.000  1.000  0.000
  0.000  0.000  1.000
    occupations:
  0.667  0.000  0.000
  0.000  0.667  0.000
  0.000  0.000  0.667
atom   36   Tr[ns(na)] =   4.00000
    eigenvalues: 
  0.667  0.667  0.667
    eigenvectors:
  1.000  0.000  0.000
  0.000  1.000  0.000
  0.000  0.000  1.000
    occupations:
  0.667  0.000  0.000
  0.000  0.667  0.000
  0.000  0.000  0.667
atom   37   Tr[ns(na)] =  10.00000
    eigenvalues: 
  1.000  1.000  1.000  1.000  1.000
    eigenvectors:
  1.000  0.000  0.000  0.000  0.000
  0.000  1.000  0.000  0.000  0.000
  0.000  0.000  1.000  0.000  0.000
  0.000  0.000  0.000  1.000  0.000
  0.000  0.000  0.000  0.000  1.000
    occupations:
  1.000  0.000  0.000  0.000  0.000
  0.000  1.000  0.000  0.000  0.000
  0.000  0.000  1.000  0.000  0.000
  0.000  0.000  0.000  1.000  0.000
  0.000  0.000  0.000  0.000  1.000
atom   38   Tr[ns(na)] =  10.00000
    eigenvalues: 
  1.000  1.000  1.000  1.000  1.000
    eigenvectors:
  1.000  0.000  0.000  0.000  0.000
  0.000  1.000  0.000  0.000  0.000
  0.000  0.000  1.000  0.000  0.000
  0.000  0.000  0.000  1.000  0.000
  0.000  0.000  0.000  0.000  1.000
    occupations:
  1.000  0.000  0.000  0.000  0.000
  0.000  1.000  0.000  0.000  0.000
  0.000  0.000  1.000  0.000  0.000
  0.000  0.000  0.000  1.000  0.000
  0.000  0.000  0.000  0.000  1.000
atom   39   Tr[ns(na)] =   4.00000
    eigenvalues: 
  0.667  0.667  0.667
    eigenvectors:
  1.000  0.000  0.000
  0.000  1.000  0.000
  0.000  0.000  1.000
    occupations:
  0.667  0.000  0.000
  0.000  0.667  0.000
  0.000  0.000  0.667
atom   40   Tr[ns(na)] =   4.00000
    eigenvalues: 
  0.667  0.667  0.667
    eigenvectors:
  1.000  0.000  0.000
  0.000  1.000  0.000
  0.000  0.000  1.000
    occupations:
  0.667  0.000  0.000
  0.000  0.667  0.000
  0.000  0.000  0.667
atom   41   Tr[ns(na)] =  10.00000
    eigenvalues: 
  1.000  1.000  1.000  1.000  1.000
    eigenvectors:
  1.000  0.000  0.000  0.000  0.000
  0.000  1.000  0.000  0.000  0.000
  0.000  0.000  1.000  0.000  0.000
  0.000  0.000  0.000  1.000  0.000
  0.000  0.000  0.000  0.000  1.000
    occupations:
  1.000  0.000  0.000  0.000  0.000
  0.000  1.000  0.000  0.000  0.000
  0.000  0.000  1.000  0.000  0.000
  0.000  0.000  0.000  1.000  0.000
  0.000  0.000  0.000  0.000  1.000
atom   42   Tr[ns(na)] =  10.00000
    eigenvalues: 
  1.000  1.000  1.000  1.000  1.000
    eigenvectors:
  1.000  0.000  0.000  0.000  0.000
  0.000  1.000  0.000  0.000  0.000
  0.000  0.000  1.000  0.000  0.000
  0.000  0.000  0.000  1.000  0.000
  0.000  0.000  0.000  0.000  1.000
    occupations:
  1.000  0.000  0.000  0.000  0.000
  0.000  1.000  0.000  0.000  0.000
  0.000  0.000  1.000  0.000  0.000
  0.000  0.000  0.000  1.000  0.000
  0.000  0.000  0.000  0.000  1.000
atom   43   Tr[ns(na)] =   4.00000
    eigenvalues: 
  0.667  0.667  0.667
    eigenvectors:
  1.000  0.000  0.000
  0.000  1.000  0.000
  0.000  0.000  1.000
    occupations:
  0.667  0.000  0.000
  0.000  0.667  0.000
  0.000  0.000  0.667
atom   44   Tr[ns(na)] =   4.00000
    eigenvalues: 
  0.667  0.667  0.667
    eigenvectors:
  1.000  0.000  0.000
  0.000  1.000  0.000
  0.000  0.000  1.000
    occupations:
  0.667  0.000  0.000
  0.000  0.667  0.000
  0.000  0.000  0.667
atom   45   Tr[ns(na)] =  10.00000
    eigenvalues: 
  1.000  1.000  1.000  1.000  1.000
    eigenvectors:
  1.000  0.000  0.000  0.000  0.000
  0.000  1.000  0.000  0.000  0.000
  0.000  0.000  1.000  0.000  0.000
  0.000  0.000  0.000  1.000  0.000
  0.000  0.000  0.000  0.000  1.000
    occupations:
  1.000  0.000  0.000  0.000  0.000
  0.000  1.000  0.000  0.000  0.000
  0.000  0.000  1.000  0.000  0.000
  0.000  0.000  0.000  1.000  0.000
  0.000  0.000  0.000  0.000  1.000
atom   46   Tr[ns(na)] =  10.00000
    eigenvalues: 
  1.000  1.000  1.000  1.000  1.000
    eigenvectors:
  1.000  0.000  0.000  0.000  0.000
  0.000  1.000  0.000  0.000  0.000
  0.000  0.000  1.000  0.000  0.000
  0.000  0.000  0.000  1.000  0.000
  0.000  0.000  0.000  0.000  1.000
    occupations:
  1.000  0.000  0.000  0.000  0.000
  0.000  1.000  0.000  0.000  0.000
  0.000  0.000  1.000  0.000  0.000
  0.000  0.000  0.000  1.000  0.000
  0.000  0.000  0.000  0.000  1.000
atom   47   Tr[ns(na)] =   4.00000
    eigenvalues: 
  0.667  0.667  0.667
    eigenvectors:
  1.000  0.000  0.000
  0.000  1.000  0.000
  0.000  0.000  1.000
    occupations:
  0.667  0.000  0.000
  0.000  0.667  0.000
  0.000  0.000  0.667
atom   48   Tr[ns(na)] =   4.00000
    eigenvalues: 
  0.667  0.667  0.667
    eigenvectors:
  1.000  0.000  0.000
  0.000  1.000  0.000
  0.000  0.000  1.000
    occupations:
  0.667  0.000  0.000
  0.000  0.667  0.000
  0.000  0.000  0.667
atom   49   Tr[ns(na)] =  10.00000
    eigenvalues: 
  1.000  1.000  1.000  1.000  1.000
    eigenvectors:
  1.000  0.000  0.000  0.000  0.000
  0.000  1.000  0.000  0.000  0.000
  0.000  0.000  1.000  0.000  0.000
  0.000  0.000  0.000  1.000  0.000
  0.000  0.000  0.000  0.000  1.000
    occupations:
  1.000  0.000  0.000  0.000  0.000
  0.000  1.000  0.000  0.000  0.000
  0.000  0.000  1.000  0.000  0.000
  0.000  0.000  0.000  1.000  0.000
  0.000  0.000  0.000  0.000  1.000
atom   50   Tr[ns(na)] =  10.00000
    eigenvalues: 
  1.000  1.000  1.000  1.000  1.000
    eigenvectors:
  1.000  0.000  0.000  0.000  0.000
  0.000  1.000  0.000  0.000  0.000
  0.000  0.000  1.000  0.000  0.000
  0.000  0.000  0.000  1.000  0.000
  0.000  0.000  0.000  0.000  1.000
    occupations:
  1.000  0.000  0.000  0.000  0.000
  0.000  1.000  0.000  0.000  0.000
  0.000  0.000  1.000  0.000  0.000
  0.000  0.000  0.000  1.000  0.000
  0.000  0.000  0.000  0.000  1.000
atom   51   Tr[ns(na)] =   4.00000
    eigenvalues: 
  0.667  0.667  0.667
    eigenvectors:
  1.000  0.000  0.000
  0.000  1.000  0.000
  0.000  0.000  1.000
    occupations:
  0.667  0.000  0.000
  0.000  0.667  0.000
  0.000  0.000  0.667
atom   52   Tr[ns(na)] =   4.00000
    eigenvalues: 
  0.667  0.667  0.667
    eigenvectors:
  1.000  0.000  0.000
  0.000  1.000  0.000
  0.000  0.000  1.000
    occupations:
  0.667  0.000  0.000
  0.000  0.667  0.000
  0.000  0.000  0.667
atom   53   Tr[ns(na)] =  10.00000
    eigenvalues: 
  1.000  1.000  1.000  1.000  1.000
    eigenvectors:
  1.000  0.000  0.000  0.000  0.000
  0.000  1.000  0.000  0.000  0.000
  0.000  0.000  1.000  0.000  0.000
  0.000  0.000  0.000  1.000  0.000
  0.000  0.000  0.000  0.000  1.000
    occupations:
  1.000  0.000  0.000  0.000  0.000
  0.000  1.000  0.000  0.000  0.000
  0.000  0.000  1.000  0.000  0.000
  0.000  0.000  0.000  1.000  0.000
  0.000  0.000  0.000  0.000  1.000
atom   54   Tr[ns(na)] =  10.00000
    eigenvalues: 
  1.000  1.000  1.000  1.000  1.000
    eigenvectors:
  1.000  0.000  0.000  0.000  0.000
  0.000  1.000  0.000  0.000  0.000
  0.000  0.000  1.000  0.000  0.000
  0.000  0.000  0.000  1.000  0.000
  0.000  0.000  0.000  0.000  1.000
    occupations:
  1.000  0.000  0.000  0.000  0.000
  0.000  1.000  0.000  0.000  0.000
  0.000  0.000  1.000  0.000  0.000
  0.000  0.000  0.000  1.000  0.000
  0.000  0.000  0.000  0.000  1.000
atom   55   Tr[ns(na)] =   4.00000
    eigenvalues: 
  0.667  0.667  0.667
    eigenvectors:
  1.000  0.000  0.000
  0.000  1.000  0.000
  0.000  0.000  1.000
    occupations:
  0.667  0.000  0.000
  0.000  0.667  0.000
  0.000  0.000  0.667
atom   56   Tr[ns(na)] =   4.00000
    eigenvalues: 
  0.667  0.667  0.667
    eigenvectors:
  1.000  0.000  0.000
  0.000  1.000  0.000
  0.000  0.000  1.000
    occupations:
  0.667  0.000  0.000
  0.000  0.667  0.000
  0.000  0.000  0.667
atom   57   Tr[ns(na)] =  10.00000
    eigenvalues: 
  1.000  1.000  1.000  1.000  1.000
    eigenvectors:
  1.000  0.000  0.000  0.000  0.000
  0.000  1.000  0.000  0.000  0.000
  0.000  0.000  1.000  0.000  0.000
  0.000  0.000  0.000  1.000  0.000
  0.000  0.000  0.000  0.000  1.000
    occupations:
  1.000  0.000  0.000  0.000  0.000
  0.000  1.000  0.000  0.000  0.000
  0.000  0.000  1.000  0.000  0.000
  0.000  0.000  0.000  1.000  0.000
  0.000  0.000  0.000  0.000  1.000
atom   58   Tr[ns(na)] =  10.00000
    eigenvalues: 
  1.000  1.000  1.000  1.000  1.000
    eigenvectors:
  1.000  0.000  0.000  0.000  0.000
  0.000  1.000  0.000  0.000  0.000
  0.000  0.000  1.000  0.000  0.000
  0.000  0.000  0.000  1.000  0.000
  0.000  0.000  0.000  0.000  1.000
    occupations:
  1.000  0.000  0.000  0.000  0.000
  0.000  1.000  0.000  0.000  0.000
  0.000  0.000  1.000  0.000  0.000
  0.000  0.000  0.000  1.000  0.000
  0.000  0.000  0.000  0.000  1.000
atom   59   Tr[ns(na)] =   4.00000
    eigenvalues: 
  0.667  0.667  0.667
    eigenvectors:
  1.000  0.000  0.000
  0.000  1.000  0.000
  0.000  0.000  1.000
    occupations:
  0.667  0.000  0.000
  0.000  0.667  0.000
  0.000  0.000  0.667
atom   60   Tr[ns(na)] =   4.00000
    eigenvalues: 
  0.667  0.667  0.667
    eigenvectors:
  1.000  0.000  0.000
  0.000  1.000  0.000
  0.000  0.000  1.000
    occupations:
  0.667  0.000  0.000
  0.000  0.667  0.000
  0.000  0.000  0.667
atom   61   Tr[ns(na)] =  10.00000
    eigenvalues: 
  1.000  1.000  1.000  1.000  1.000
    eigenvectors:
  1.000  0.000  0.000  0.000  0.000
  0.000  1.000  0.000  0.000  0.000
  0.000  0.000  1.000  0.000  0.000
  0.000  0.000  0.000  1.000  0.000
  0.000  0.000  0.000  0.000  1.000
    occupations:
  1.000  0.000  0.000  0.000  0.000
  0.000  1.000  0.000  0.000  0.000
  0.000  0.000  1.000  0.000  0.000
  0.000  0.000  0.000  1.000  0.000
  0.000  0.000  0.000  0.000  1.000
atom   62   Tr[ns(na)] =  10.00000
    eigenvalues: 
  1.000  1.000  1.000  1.000  1.000
    eigenvectors:
  1.000  0.000  0.000  0.000  0.000
  0.000  1.000  0.000  0.000  0.000
  0.000  0.000  1.000  0.000  0.000
  0.000  0.000  0.000  1.000  0.000
  0.000  0.000  0.000  0.000  1.000
    occupations:
  1.000  0.000  0.000  0.000  0.000
  0.000  1.000  0.000  0.000  0.000
  0.000  0.000  1.000  0.000  0.000
  0.000  0.000  0.000  1.000  0.000
  0.000  0.000  0.000  0.000  1.000
atom   63   Tr[ns(na)] =   4.00000
    eigenvalues: 
  0.667  0.667  0.667
    eigenvectors:
  1.000  0.000  0.000
  0.000  1.000  0.000
  0.000  0.000  1.000
    occupations:
  0.667  0.000  0.000
  0.000  0.667  0.000
  0.000  0.000  0.667
atom   64   Tr[ns(na)] =   4.00000
    eigenvalues: 
  0.667  0.667  0.667
    eigenvectors:
  1.000  0.000  0.000
  0.000  1.000  0.000
  0.000  0.000  1.000
    occupations:
  0.667  0.000  0.000
  0.000  0.667  0.000
  0.000  0.000  0.667
atom   65   Tr[ns(na)] =  10.00000
    eigenvalues: 
  1.000  1.000  1.000  1.000  1.000
    eigenvectors:
  1.000  0.000  0.000  0.000  0.000
  0.000  1.000  0.000  0.000  0.000
  0.000  0.000  1.000  0.000  0.000
  0.000  0.000  0.000  1.000  0.000
  0.000  0.000  0.000  0.000  1.000
    occupations:
  1.000  0.000  0.000  0.000  0.000
  0.000  1.000  0.000  0.000  0.000
  0.000  0.000  1.000  0.000  0.000
  0.000  0.000  0.000  1.000  0.000
  0.000  0.000  0.000  0.000  1.000
atom   66   Tr[ns(na)] =  10.00000
    eigenvalues: 
  1.000  1.000  1.000  1.000  1.000
    eigenvectors:
  1.000  0.000  0.000  0.000  0.000
  0.000  1.000  0.000  0.000  0.000
  0.000  0.000  1.000  0.000  0.000
  0.000  0.000  0.000  1.000  0.000
  0.000  0.000  0.000  0.000  1.000
    occupations:
  1.000  0.000  0.000  0.000  0.000
  0.000  1.000  0.000  0.000  0.000
  0.000  0.000  1.000  0.000  0.000
  0.000  0.000  0.000  1.000  0.000
  0.000  0.000  0.000  0.000  1.000
atom   67   Tr[ns(na)] =   4.00000
    eigenvalues: 
  0.667  0.667  0.667
    eigenvectors:
  1.000  0.000  0.000
  0.000  1.000  0.000
  0.000  0.000  1.000
    occupations:
  0.667  0.000  0.000
  0.000  0.667  0.000
  0.000  0.000  0.667
atom   68   Tr[ns(na)] =   4.00000
    eigenvalues: 
  0.667  0.667  0.667
    eigenvectors:
  1.000  0.000  0.000
  0.000  1.000  0.000
  0.000  0.000  1.000
    occupations:
  0.667  0.000  0.000
  0.000  0.667  0.000
  0.000  0.000  0.667
atom   70   Tr[ns(na)] =  10.00000
    eigenvalues: 
  1.000  1.000  1.000  1.000  1.000
    eigenvectors:
  1.000  0.000  0.000  0.000  0.000
  0.000  1.000  0.000  0.000  0.000
  0.000  0.000  1.000  0.000  0.000
  0.000  0.000  0.000  1.000  0.000
  0.000  0.000  0.000  0.000  1.000
    occupations:
  1.000  0.000  0.000  0.000  0.000
  0.000  1.000  0.000  0.000  0.000
  0.000  0.000  1.000  0.000  0.000
  0.000  0.000  0.000  1.000  0.000
  0.000  0.000  0.000  0.000  1.000
atom   71   Tr[ns(na)] =   4.00000
    eigenvalues: 
  0.667  0.667  0.667
    eigenvectors:
  1.000  0.000  0.000
  0.000  1.000  0.000
  0.000  0.000  1.000
    occupations:
  0.667  0.000  0.000
  0.000  0.667  0.000
  0.000  0.000  0.667
atom   72   Tr[ns(na)] =   4.00000
    eigenvalues: 
  0.667  0.667  0.667
    eigenvectors:
  1.000  0.000  0.000
  0.000  1.000  0.000
  0.000  0.000  1.000
    occupations:
  0.667  0.000  0.000
  0.000  0.667  0.000
  0.000  0.000  0.667
atom   73   Tr[ns(na)] =  10.00000
    eigenvalues: 
  1.000  1.000  1.000  1.000  1.000
    eigenvectors:
  1.000  0.000  0.000  0.000  0.000
  0.000  1.000  0.000  0.000  0.000
  0.000  0.000  1.000  0.000  0.000
  0.000  0.000  0.000  1.000  0.000
  0.000  0.000  0.000  0.000  1.000
    occupations:
  1.000  0.000  0.000  0.000  0.000
  0.000  1.000  0.000  0.000  0.000
  0.000  0.000  1.000  0.000  0.000
  0.000  0.000  0.000  1.000  0.000
  0.000  0.000  0.000  0.000  1.000
atom   74   Tr[ns(na)] =  10.00000
    eigenvalues: 
  1.000  1.000  1.000  1.000  1.000
    eigenvectors:
  1.000  0.000  0.000  0.000  0.000
  0.000  1.000  0.000  0.000  0.000
  0.000  0.000  1.000  0.000  0.000
  0.000  0.000  0.000  1.000  0.000
  0.000  0.000  0.000  0.000  1.000
    occupations:
  1.000  0.000  0.000  0.000  0.000
  0.000  1.000  0.000  0.000  0.000
  0.000  0.000  1.000  0.000  0.000
  0.000  0.000  0.000  1.000  0.000
  0.000  0.000  0.000  0.000  1.000
atom   75   Tr[ns(na)] =   4.00000
    eigenvalues: 
  0.667  0.667  0.667
    eigenvectors:
  1.000  0.000  0.000
  0.000  1.000  0.000
  0.000  0.000  1.000
    occupations:
  0.667  0.000  0.000
  0.000  0.667  0.000
  0.000  0.000  0.667
atom   76   Tr[ns(na)] =   4.00000
    eigenvalues: 
  0.667  0.667  0.667
    eigenvectors:
  1.000  0.000  0.000
  0.000  1.000  0.000
  0.000  0.000  1.000
    occupations:
  0.667  0.000  0.000
  0.000  0.667  0.000
  0.000  0.000  0.667
atom   77   Tr[ns(na)] =  10.00000
    eigenvalues: 
  1.000  1.000  1.000  1.000  1.000
    eigenvectors:
  1.000  0.000  0.000  0.000  0.000
  0.000  1.000  0.000  0.000  0.000
  0.000  0.000  1.000  0.000  0.000
  0.000  0.000  0.000  1.000  0.000
  0.000  0.000  0.000  0.000  1.000
    occupations:
  1.000  0.000  0.000  0.000  0.000
  0.000  1.000  0.000  0.000  0.000
  0.000  0.000  1.000  0.000  0.000
  0.000  0.000  0.000  1.000  0.000
  0.000  0.000  0.000  0.000  1.000
atom   78   Tr[ns(na)] =  10.00000
    eigenvalues: 
  1.000  1.000  1.000  1.000  1.000
    eigenvectors:
  1.000  0.000  0.000  0.000  0.000
  0.000  1.000  0.000  0.000  0.000
  0.000  0.000  1.000  0.000  0.000
  0.000  0.000  0.000  1.000  0.000
  0.000  0.000  0.000  0.000  1.000
    occupations:
  1.000  0.000  0.000  0.000  0.000
  0.000  1.000  0.000  0.000  0.000
  0.000  0.000  1.000  0.000  0.000
  0.000  0.000  0.000  1.000  0.000
  0.000  0.000  0.000  0.000  1.000
atom   79   Tr[ns(na)] =   4.00000
    eigenvalues: 
  0.667  0.667  0.667
    eigenvectors:
  1.000  0.000  0.000
  0.000  1.000  0.000
  0.000  0.000  1.000
    occupations:
  0.667  0.000  0.000
  0.000  0.667  0.000
  0.000  0.000  0.667
atom   80   Tr[ns(na)] =   4.00000
    eigenvalues: 
  0.667  0.667  0.667
    eigenvectors:
  1.000  0.000  0.000
  0.000  1.000  0.000
  0.000  0.000  1.000
    occupations:
  0.667  0.000  0.000
  0.000  0.667  0.000
  0.000  0.000  0.667
atom   81   Tr[ns(na)] =  10.00000
    eigenvalues: 
  1.000  1.000  1.000  1.000  1.000
    eigenvectors:
  1.000  0.000  0.000  0.000  0.000
  0.000  1.000  0.000  0.000  0.000
  0.000  0.000  1.000  0.000  0.000
  0.000  0.000  0.000  1.000  0.000
  0.000  0.000  0.000  0.000  1.000
    occupations:
  1.000  0.000  0.000  0.000  0.000
  0.000  1.000  0.000  0.000  0.000
  0.000  0.000  1.000  0.000  0.000
  0.000  0.000  0.000  1.000  0.000
  0.000  0.000  0.000  0.000  1.000
atom   82   Tr[ns(na)] =  10.00000
    eigenvalues: 
  1.000  1.000  1.000  1.000  1.000
    eigenvectors:
  1.000  0.000  0.000  0.000  0.000
  0.000  1.000  0.000  0.000  0.000
  0.000  0.000  1.000  0.000  0.000
  0.000  0.000  0.000  1.000  0.000
  0.000  0.000  0.000  0.000  1.000
    occupations:
  1.000  0.000  0.000  0.000  0.000
  0.000  1.000  0.000  0.000  0.000
  0.000  0.000  1.000  0.000  0.000
  0.000  0.000  0.000  1.000  0.000
  0.000  0.000  0.000  0.000  1.000
atom   83   Tr[ns(na)] =   4.00000
    eigenvalues: 
  0.667  0.667  0.667
    eigenvectors:
  1.000  0.000  0.000
  0.000  1.000  0.000
  0.000  0.000  1.000
    occupations:
  0.667  0.000  0.000
  0.000  0.667  0.000
  0.000  0.000  0.667
atom   84   Tr[ns(na)] =   4.00000
    eigenvalues: 
  0.667  0.667  0.667
    eigenvectors:
  1.000  0.000  0.000
  0.000  1.000  0.000
  0.000  0.000  1.000
    occupations:
  0.667  0.000  0.000
  0.000  0.667  0.000
  0.000  0.000  0.667
atom   85   Tr[ns(na)] =  10.00000
    eigenvalues: 
  1.000  1.000  1.000  1.000  1.000
    eigenvectors:
  1.000  0.000  0.000  0.000  0.000
  0.000  1.000  0.000  0.000  0.000
  0.000  0.000  1.000  0.000  0.000
  0.000  0.000  0.000  1.000  0.000
  0.000  0.000  0.000  0.000  1.000
    occupations:
  1.000  0.000  0.000  0.000  0.000
  0.000  1.000  0.000  0.000  0.000
  0.000  0.000  1.000  0.000  0.000
  0.000  0.000  0.000  1.000  0.000
  0.000  0.000  0.000  0.000  1.000
atom   86   Tr[ns(na)] =  10.00000
    eigenvalues: 
  1.000  1.000  1.000  1.000  1.000
    eigenvectors:
  1.000  0.000  0.000  0.000  0.000
  0.000  1.000  0.000  0.000  0.000
  0.000  0.000  1.000  0.000  0.000
  0.000  0.000  0.000  1.000  0.000
  0.000  0.000  0.000  0.000  1.000
    occupations:
  1.000  0.000  0.000  0.000  0.000
  0.000  1.000  0.000  0.000  0.000
  0.000  0.000  1.000  0.000  0.000
  0.000  0.000  0.000  1.000  0.000
  0.000  0.000  0.000  0.000  1.000
atom   87   Tr[ns(na)] =   4.00000
    eigenvalues: 
  0.667  0.667  0.667
    eigenvectors:
  1.000  0.000  0.000
  0.000  1.000  0.000
  0.000  0.000  1.000
    occupations:
  0.667  0.000  0.000
  0.000  0.667  0.000
  0.000  0.000  0.667
atom   88   Tr[ns(na)] =   4.00000
    eigenvalues: 
  0.667  0.667  0.667
    eigenvectors:
  1.000  0.000  0.000
  0.000  1.000  0.000
  0.000  0.000  1.000
    occupations:
  0.667  0.000  0.000
  0.000  0.667  0.000
  0.000  0.000  0.667
atom   89   Tr[ns(na)] =  10.00000
    eigenvalues: 
  1.000  1.000  1.000  1.000  1.000
    eigenvectors:
  1.000  0.000  0.000  0.000  0.000
  0.000  1.000  0.000  0.000  0.000
  0.000  0.000  1.000  0.000  0.000
  0.000  0.000  0.000  1.000  0.000
  0.000  0.000  0.000  0.000  1.000
    occupations:
  1.000  0.000  0.000  0.000  0.000
  0.000  1.000  0.000  0.000  0.000
  0.000  0.000  1.000  0.000  0.000
  0.000  0.000  0.000  1.000  0.000
  0.000  0.000  0.000  0.000  1.000
atom   90   Tr[ns(na)] =  10.00000
    eigenvalues: 
  1.000  1.000  1.000  1.000  1.000
    eigenvectors:
  1.000  0.000  0.000  0.000  0.000
  0.000  1.000  0.000  0.000  0.000
  0.000  0.000  1.000  0.000  0.000
  0.000  0.000  0.000  1.000  0.000
  0.000  0.000  0.000  0.000  1.000
    occupations:
  1.000  0.000  0.000  0.000  0.000
  0.000  1.000  0.000  0.000  0.000
  0.000  0.000  1.000  0.000  0.000
  0.000  0.000  0.000  1.000  0.000
  0.000  0.000  0.000  0.000  1.000
atom   91   Tr[ns(na)] =   4.00000
    eigenvalues: 
  0.667  0.667  0.667
    eigenvectors:
  1.000  0.000  0.000
  0.000  1.000  0.000
  0.000  0.000  1.000
    occupations:
  0.667  0.000  0.000
  0.000  0.667  0.000
  0.000  0.000  0.667
atom   92   Tr[ns(na)] =   4.00000
    eigenvalues: 
  0.667  0.667  0.667
    eigenvectors:
  1.000  0.000  0.000
  0.000  1.000  0.000
  0.000  0.000  1.000
    occupations:
  0.667  0.000  0.000
  0.000  0.667  0.000
  0.000  0.000  0.667
atom   93   Tr[ns(na)] =  10.00000
    eigenvalues: 
  1.000  1.000  1.000  1.000  1.000
    eigenvectors:
  1.000  0.000  0.000  0.000  0.000
  0.000  1.000  0.000  0.000  0.000
  0.000  0.000  1.000  0.000  0.000
  0.000  0.000  0.000  1.000  0.000
  0.000  0.000  0.000  0.000  1.000
    occupations:
  1.000  0.000  0.000  0.000  0.000
  0.000  1.000  0.000  0.000  0.000
  0.000  0.000  1.000  0.000  0.000
  0.000  0.000  0.000  1.000  0.000
  0.000  0.000  0.000  0.000  1.000
atom   94   Tr[ns(na)] =  10.00000
    eigenvalues: 
  1.000  1.000  1.000  1.000  1.000
    eigenvectors:
  1.000  0.000  0.000  0.000  0.000
  0.000  1.000  0.000  0.000  0.000
  0.000  0.000  1.000  0.000  0.000
  0.000  0.000  0.000  1.000  0.000
  0.000  0.000  0.000  0.000  1.000
    occupations:
  1.000  0.000  0.000  0.000  0.000
  0.000  1.000  0.000  0.000  0.000
  0.000  0.000  1.000  0.000  0.000
  0.000  0.000  0.000  1.000  0.000
  0.000  0.000  0.000  0.000  1.000
atom   95   Tr[ns(na)] =   4.00000
    eigenvalues: 
  0.667  0.667  0.667
    eigenvectors:
  1.000  0.000  0.000
  0.000  1.000  0.000
  0.000  0.000  1.000
    occupations:
  0.667  0.000  0.000
  0.000  0.667  0.000
  0.000  0.000  0.667
atom   96   Tr[ns(na)] =   4.00000
    eigenvalues: 
  0.667  0.667  0.667
    eigenvectors:
  1.000  0.000  0.000
  0.000  1.000  0.000
  0.000  0.000  1.000
    occupations:
  0.667  0.000  0.000
  0.000  0.667  0.000
  0.000  0.000  0.667
atom   97   Tr[ns(na)] =  10.00000
    eigenvalues: 
  1.000  1.000  1.000  1.000  1.000
    eigenvectors:
  1.000  0.000  0.000  0.000  0.000
  0.000  1.000  0.000  0.000  0.000
  0.000  0.000  1.000  0.000  0.000
  0.000  0.000  0.000  1.000  0.000
  0.000  0.000  0.000  0.000  1.000
    occupations:
  1.000  0.000  0.000  0.000  0.000
  0.000  1.000  0.000  0.000  0.000
  0.000  0.000  1.000  0.000  0.000
  0.000  0.000  0.000  1.000  0.000
  0.000  0.000  0.000  0.000  1.000
atom   98   Tr[ns(na)] =  10.00000
    eigenvalues: 
  1.000  1.000  1.000  1.000  1.000
    eigenvectors:
  1.000  0.000  0.000  0.000  0.000
  0.000  1.000  0.000  0.000  0.000
  0.000  0.000  1.000  0.000  0.000
  0.000  0.000  0.000  1.000  0.000
  0.000  0.000  0.000  0.000  1.000
    occupations:
  1.000  0.000  0.000  0.000  0.000
  0.000  1.000  0.000  0.000  0.000
  0.000  0.000  1.000  0.000  0.000
  0.000  0.000  0.000  1.000  0.000
  0.000  0.000  0.000  0.000  1.000
atom   99   Tr[ns(na)] =   4.00000
    eigenvalues: 
  0.667  0.667  0.667
    eigenvectors:
  1.000  0.000  0.000
  0.000  1.000  0.000
  0.000  0.000  1.000
    occupations:
  0.667  0.000  0.000
  0.000  0.667  0.000
  0.000  0.000  0.667
atom  100   Tr[ns(na)] =   4.00000
    eigenvalues: 
  0.667  0.667  0.667
    eigenvectors:
  1.000  0.000  0.000
  0.000  1.000  0.000
  0.000  0.000  1.000
    occupations:
  0.667  0.000  0.000
  0.000  0.667  0.000
  0.000  0.000  0.667
atom  101   Tr[ns(na)] =  10.00000
    eigenvalues: 
  1.000  1.000  1.000  1.000  1.000
    eigenvectors:
  1.000  0.000  0.000  0.000  0.000
  0.000  1.000  0.000  0.000  0.000
  0.000  0.000  1.000  0.000  0.000
  0.000  0.000  0.000  1.000  0.000
  0.000  0.000  0.000  0.000  1.000
    occupations:
  1.000  0.000  0.000  0.000  0.000
  0.000  1.000  0.000  0.000  0.000
  0.000  0.000  1.000  0.000  0.000
  0.000  0.000  0.000  1.000  0.000
  0.000  0.000  0.000  0.000  1.000
atom  102   Tr[ns(na)] =  10.00000
    eigenvalues: 
  1.000  1.000  1.000  1.000  1.000
    eigenvectors:
  1.000  0.000  0.000  0.000  0.000
  0.000  1.000  0.000  0.000  0.000
  0.000  0.000  1.000  0.000  0.000
  0.000  0.000  0.000  1.000  0.000
  0.000  0.000  0.000  0.000  1.000
    occupations:
  1.000  0.000  0.000  0.000  0.000
  0.000  1.000  0.000  0.000  0.000
  0.000  0.000  1.000  0.000  0.000
  0.000  0.000  0.000  1.000  0.000
  0.000  0.000  0.000  0.000  1.000
atom  103   Tr[ns(na)] =   4.00000
    eigenvalues: 
  0.667  0.667  0.667
    eigenvectors:
  1.000  0.000  0.000
  0.000  1.000  0.000
  0.000  0.000  1.000
    occupations:
  0.667  0.000  0.000
  0.000  0.667  0.000
  0.000  0.000  0.667
atom  104   Tr[ns(na)] =   4.00000
    eigenvalues: 
  0.667  0.667  0.667
    eigenvectors:
  1.000  0.000  0.000
  0.000  1.000  0.000
  0.000  0.000  1.000
    occupations:
  0.667  0.000  0.000
  0.000  0.667  0.000
  0.000  0.000  0.667
atom  105   Tr[ns(na)] =  10.00000
    eigenvalues: 
  1.000  1.000  1.000  1.000  1.000
    eigenvectors:
  1.000  0.000  0.000  0.000  0.000
  0.000  1.000  0.000  0.000  0.000
  0.000  0.000  1.000  0.000  0.000
  0.000  0.000  0.000  1.000  0.000
  0.000  0.000  0.000  0.000  1.000
    occupations:
  1.000  0.000  0.000  0.000  0.000
  0.000  1.000  0.000  0.000  0.000
  0.000  0.000  1.000  0.000  0.000
  0.000  0.000  0.000  1.000  0.000
  0.000  0.000  0.000  0.000  1.000
atom  106   Tr[ns(na)] =  10.00000
    eigenvalues: 
  1.000  1.000  1.000  1.000  1.000
    eigenvectors:
  1.000  0.000  0.000  0.000  0.000
  0.000  1.000  0.000  0.000  0.000
  0.000  0.000  1.000  0.000  0.000
  0.000  0.000  0.000  1.000  0.000
  0.000  0.000  0.000  0.000  1.000
    occupations:
  1.000  0.000  0.000  0.000  0.000
  0.000  1.000  0.000  0.000  0.000
  0.000  0.000  1.000  0.000  0.000
  0.000  0.000  0.000  1.000  0.000
  0.000  0.000  0.000  0.000  1.000
atom  107   Tr[ns(na)] =   4.00000
    eigenvalues: 
  0.667  0.667  0.667
    eigenvectors:
  1.000  0.000  0.000
  0.000  1.000  0.000
  0.000  0.000  1.000
    occupations:
  0.667  0.000  0.000
  0.000  0.667  0.000
  0.000  0.000  0.667
atom  108   Tr[ns(na)] =   4.00000
    eigenvalues: 
  0.667  0.667  0.667
    eigenvectors:
  1.000  0.000  0.000
  0.000  1.000  0.000
  0.000  0.000  1.000
    occupations:
  0.667  0.000  0.000
  0.000  0.667  0.000
  0.000  0.000  0.667
atom  109   Tr[ns(na)] =  10.00000
    eigenvalues: 
  1.000  1.000  1.000  1.000  1.000
    eigenvectors:
  1.000  0.000  0.000  0.000  0.000
  0.000  1.000  0.000  0.000  0.000
  0.000  0.000  1.000  0.000  0.000
  0.000  0.000  0.000  1.000  0.000
  0.000  0.000  0.000  0.000  1.000
    occupations:
  1.000  0.000  0.000  0.000  0.000
  0.000  1.000  0.000  0.000  0.000
  0.000  0.000  1.000  0.000  0.000
  0.000  0.000  0.000  1.000  0.000
  0.000  0.000  0.000  0.000  1.000
atom  110   Tr[ns(na)] =  10.00000
    eigenvalues: 
  1.000  1.000  1.000  1.000  1.000
    eigenvectors:
  1.000  0.000  0.000  0.000  0.000
  0.000  1.000  0.000  0.000  0.000
  0.000  0.000  1.000  0.000  0.000
  0.000  0.000  0.000  1.000  0.000
  0.000  0.000  0.000  0.000  1.000
    occupations:
  1.000  0.000  0.000  0.000  0.000
  0.000  1.000  0.000  0.000  0.000
  0.000  0.000  1.000  0.000  0.000
  0.000  0.000  0.000  1.000  0.000
  0.000  0.000  0.000  0.000  1.000
atom  111   Tr[ns(na)] =   4.00000
    eigenvalues: 
  0.667  0.667  0.667
    eigenvectors:
  1.000  0.000  0.000
  0.000  1.000  0.000
  0.000  0.000  1.000
    occupations:
  0.667  0.000  0.000
  0.000  0.667  0.000
  0.000  0.000  0.667
atom  112   Tr[ns(na)] =   4.00000
    eigenvalues: 
  0.667  0.667  0.667
    eigenvectors:
  1.000  0.000  0.000
  0.000  1.000  0.000
  0.000  0.000  1.000
    occupations:
  0.667  0.000  0.000
  0.000  0.667  0.000
  0.000  0.000  0.667
atom  113   Tr[ns(na)] =  10.00000
    eigenvalues: 
  1.000  1.000  1.000  1.000  1.000
    eigenvectors:
  1.000  0.000  0.000  0.000  0.000
  0.000  1.000  0.000  0.000  0.000
  0.000  0.000  1.000  0.000  0.000
  0.000  0.000  0.000  1.000  0.000
  0.000  0.000  0.000  0.000  1.000
    occupations:
  1.000  0.000  0.000  0.000  0.000
  0.000  1.000  0.000  0.000  0.000
  0.000  0.000  1.000  0.000  0.000
  0.000  0.000  0.000  1.000  0.000
  0.000  0.000  0.000  0.000  1.000
atom  114   Tr[ns(na)] =  10.00000
    eigenvalues: 
  1.000  1.000  1.000  1.000  1.000
    eigenvectors:
  1.000  0.000  0.000  0.000  0.000
  0.000  1.000  0.000  0.000  0.000
  0.000  0.000  1.000  0.000  0.000
  0.000  0.000  0.000  1.000  0.000
  0.000  0.000  0.000  0.000  1.000
    occupations:
  1.000  0.000  0.000  0.000  0.000
  0.000  1.000  0.000  0.000  0.000
  0.000  0.000  1.000  0.000  0.000
  0.000  0.000  0.000  1.000  0.000
  0.000  0.000  0.000  0.000  1.000
atom  115   Tr[ns(na)] =   4.00000
    eigenvalues: 
  0.667  0.667  0.667
    eigenvectors:
  1.000  0.000  0.000
  0.000  1.000  0.000
  0.000  0.000  1.000
    occupations:
  0.667  0.000  0.000
  0.000  0.667  0.000
  0.000  0.000  0.667
atom  116   Tr[ns(na)] =   4.00000
    eigenvalues: 
  0.667  0.667  0.667
    eigenvectors:
  1.000  0.000  0.000
  0.000  1.000  0.000
  0.000  0.000  1.000
    occupations:
  0.667  0.000  0.000
  0.000  0.667  0.000
  0.000  0.000  0.667
atom  117   Tr[ns(na)] =  10.00000
    eigenvalues: 
  1.000  1.000  1.000  1.000  1.000
    eigenvectors:
  1.000  0.000  0.000  0.000  0.000
  0.000  1.000  0.000  0.000  0.000
  0.000  0.000  1.000  0.000  0.000
  0.000  0.000  0.000  1.000  0.000
  0.000  0.000  0.000  0.000  1.000
    occupations:
  1.000  0.000  0.000  0.000  0.000
  0.000  1.000  0.000  0.000  0.000
  0.000  0.000  1.000  0.000  0.000
  0.000  0.000  0.000  1.000  0.000
  0.000  0.000  0.000  0.000  1.000
atom  118   Tr[ns(na)] =  10.00000
    eigenvalues: 
  1.000  1.000  1.000  1.000  1.000
    eigenvectors:
  1.000  0.000  0.000  0.000  0.000
  0.000  1.000  0.000  0.000  0.000
  0.000  0.000  1.000  0.000  0.000
  0.000  0.000  0.000  1.000  0.000
  0.000  0.000  0.000  0.000  1.000
    occupations:
  1.000  0.000  0.000  0.000  0.000
  0.000  1.000  0.000  0.000  0.000
  0.000  0.000  1.000  0.000  0.000
  0.000  0.000  0.000  1.000  0.000
  0.000  0.000  0.000  0.000  1.000
atom  119   Tr[ns(na)] =   4.00000
    eigenvalues: 
  0.667  0.667  0.667
    eigenvectors:
  1.000  0.000  0.000
  0.000  1.000  0.000
  0.000  0.000  1.000
    occupations:
  0.667  0.000  0.000
  0.000  0.667  0.000
  0.000  0.000  0.667
atom  120   Tr[ns(na)] =   4.00000
    eigenvalues: 
  0.667  0.667  0.667
    eigenvectors:
  1.000  0.000  0.000
  0.000  1.000  0.000
  0.000  0.000  1.000
    occupations:
  0.667  0.000  0.000
  0.000  0.667  0.000
  0.000  0.000  0.667
atom  121   Tr[ns(na)] =  10.00000
    eigenvalues: 
  1.000  1.000  1.000  1.000  1.000
    eigenvectors:
  1.000  0.000  0.000  0.000  0.000
  0.000  1.000  0.000  0.000  0.000
  0.000  0.000  1.000  0.000  0.000
  0.000  0.000  0.000  1.000  0.000
  0.000  0.000  0.000  0.000  1.000
    occupations:
  1.000  0.000  0.000  0.000  0.000
  0.000  1.000  0.000  0.000  0.000
  0.000  0.000  1.000  0.000  0.000
  0.000  0.000  0.000  1.000  0.000
  0.000  0.000  0.000  0.000  1.000
atom  122   Tr[ns(na)] =  10.00000
    eigenvalues: 
  1.000  1.000  1.000  1.000  1.000
    eigenvectors:
  1.000  0.000  0.000  0.000  0.000
  0.000  1.000  0.000  0.000  0.000
  0.000  0.000  1.000  0.000  0.000
  0.000  0.000  0.000  1.000  0.000
  0.000  0.000  0.000  0.000  1.000
    occupations:
  1.000  0.000  0.000  0.000  0.000
  0.000  1.000  0.000  0.000  0.000
  0.000  0.000  1.000  0.000  0.000
  0.000  0.000  0.000  1.000  0.000
  0.000  0.000  0.000  0.000  1.000
atom  123   Tr[ns(na)] =   4.00000
    eigenvalues: 
  0.667  0.667  0.667
    eigenvectors:
  1.000  0.000  0.000
  0.000  1.000  0.000
  0.000  0.000  1.000
    occupations:
  0.667  0.000  0.000
  0.000  0.667  0.000
  0.000  0.000  0.667
atom  124   Tr[ns(na)] =   4.00000
    eigenvalues: 
  0.667  0.667  0.667
    eigenvectors:
  1.000  0.000  0.000
  0.000  1.000  0.000
  0.000  0.000  1.000
    occupations:
  0.667  0.000  0.000
  0.000  0.667  0.000
  0.000  0.000  0.667
atom  125   Tr[ns(na)] =  10.00000
    eigenvalues: 
  1.000  1.000  1.000  1.000  1.000
    eigenvectors:
  1.000  0.000  0.000  0.000  0.000
  0.000  1.000  0.000  0.000  0.000
  0.000  0.000  1.000  0.000  0.000
  0.000  0.000  0.000  1.000  0.000
  0.000  0.000  0.000  0.000  1.000
    occupations:
  1.000  0.000  0.000  0.000  0.000
  0.000  1.000  0.000  0.000  0.000
  0.000  0.000  1.000  0.000  0.000
  0.000  0.000  0.000  1.000  0.000
  0.000  0.000  0.000  0.000  1.000
atom  126   Tr[ns(na)] =  10.00000
    eigenvalues: 
  1.000  1.000  1.000  1.000  1.000
    eigenvectors:
  1.000  0.000  0.000  0.000  0.000
  0.000  1.000  0.000  0.000  0.000
  0.000  0.000  1.000  0.000  0.000
  0.000  0.000  0.000  1.000  0.000
  0.000  0.000  0.000  0.000  1.000
    occupations:
  1.000  0.000  0.000  0.000  0.000
  0.000  1.000  0.000  0.000  0.000
  0.000  0.000  1.000  0.000  0.000
  0.000  0.000  0.000  1.000  0.000
  0.000  0.000  0.000  0.000  1.000
atom  127   Tr[ns(na)] =   4.00000
    eigenvalues: 
  0.667  0.667  0.667
    eigenvectors:
  1.000  0.000  0.000
  0.000  1.000  0.000
  0.000  0.000  1.000
    occupations:
  0.667  0.000  0.000
  0.000  0.667  0.000
  0.000  0.000  0.667
atom  128   Tr[ns(na)] =   4.00000
    eigenvalues: 
  0.667  0.667  0.667
    eigenvectors:
  1.000  0.000  0.000
  0.000  1.000  0.000
  0.000  0.000  1.000
    occupations:
  0.667  0.000  0.000
  0.000  0.667  0.000
  0.000  0.000  0.667
atom  130   Tr[ns(na)] =  10.00000
    eigenvalues: 
  1.000  1.000  1.000  1.000  1.000
    eigenvectors:
  1.000  0.000  0.000  0.000  0.000
  0.000  1.000  0.000  0.000  0.000
  0.000  0.000  1.000  0.000  0.000
  0.000  0.000  0.000  1.000  0.000
  0.000  0.000  0.000  0.000  1.000
    occupations:
  1.000  0.000  0.000  0.000  0.000
  0.000  1.000  0.000  0.000  0.000
  0.000  0.000  1.000  0.000  0.000
  0.000  0.000  0.000  1.000  0.000
  0.000  0.000  0.000  0.000  1.000
atom  131   Tr[ns(na)] =   4.00000
    eigenvalues: 
  0.667  0.667  0.667
    eigenvectors:
  1.000  0.000  0.000
  0.000  1.000  0.000
  0.000  0.000  1.000
    occupations:
  0.667  0.000  0.000
  0.000  0.667  0.000
  0.000  0.000  0.667
atom  132   Tr[ns(na)] =   4.00000
    eigenvalues: 
  0.667  0.667  0.667
    eigenvectors:
  1.000  0.000  0.000
  0.000  1.000  0.000
  0.000  0.000  1.000
    occupations:
  0.667  0.000  0.000
  0.000  0.667  0.000
  0.000  0.000  0.667
atom  133   Tr[ns(na)] =  10.00000
    eigenvalues: 
  1.000  1.000  1.000  1.000  1.000
    eigenvectors:
  1.000  0.000  0.000  0.000  0.000
  0.000  1.000  0.000  0.000  0.000
  0.000  0.000  1.000  0.000  0.000
  0.000  0.000  0.000  1.000  0.000
  0.000  0.000  0.000  0.000  1.000
    occupations:
  1.000  0.000  0.000  0.000  0.000
  0.000  1.000  0.000  0.000  0.000
  0.000  0.000  1.000  0.000  0.000
  0.000  0.000  0.000  1.000  0.000
  0.000  0.000  0.000  0.000  1.000
atom  134   Tr[ns(na)] =  10.00000
    eigenvalues: 
  1.000  1.000  1.000  1.000  1.000
    eigenvectors:
  1.000  0.000  0.000  0.000  0.000
  0.000  1.000  0.000  0.000  0.000
  0.000  0.000  1.000  0.000  0.000
  0.000  0.000  0.000  1.000  0.000
  0.000  0.000  0.000  0.000  1.000
    occupations:
  1.000  0.000  0.000  0.000  0.000
  0.000  1.000  0.000  0.000  0.000
  0.000  0.000  1.000  0.000  0.000
  0.000  0.000  0.000  1.000  0.000
  0.000  0.000  0.000  0.000  1.000
atom  135   Tr[ns(na)] =   4.00000
    eigenvalues: 
  0.667  0.667  0.667
    eigenvectors:
  1.000  0.000  0.000
  0.000  1.000  0.000
  0.000  0.000  1.000
    occupations:
  0.667  0.000  0.000
  0.000  0.667  0.000
  0.000  0.000  0.667
atom  136   Tr[ns(na)] =   4.00000
    eigenvalues: 
  0.667  0.667  0.667
    eigenvectors:
  1.000  0.000  0.000
  0.000  1.000  0.000
  0.000  0.000  1.000
    occupations:
  0.667  0.000  0.000
  0.000  0.667  0.000
  0.000  0.000  0.667
atom  137   Tr[ns(na)] =  10.00000
    eigenvalues: 
  1.000  1.000  1.000  1.000  1.000
    eigenvectors:
  1.000  0.000  0.000  0.000  0.000
  0.000  1.000  0.000  0.000  0.000
  0.000  0.000  1.000  0.000  0.000
  0.000  0.000  0.000  1.000  0.000
  0.000  0.000  0.000  0.000  1.000
    occupations:
  1.000  0.000  0.000  0.000  0.000
  0.000  1.000  0.000  0.000  0.000
  0.000  0.000  1.000  0.000  0.000
  0.000  0.000  0.000  1.000  0.000
  0.000  0.000  0.000  0.000  1.000
atom  138   Tr[ns(na)] =  10.00000
    eigenvalues: 
  1.000  1.000  1.000  1.000  1.000
    eigenvectors:
  1.000  0.000  0.000  0.000  0.000
  0.000  1.000  0.000  0.000  0.000
  0.000  0.000  1.000  0.000  0.000
  0.000  0.000  0.000  1.000  0.000
  0.000  0.000  0.000  0.000  1.000
    occupations:
  1.000  0.000  0.000  0.000  0.000
  0.000  1.000  0.000  0.000  0.000
  0.000  0.000  1.000  0.000  0.000
  0.000  0.000  0.000  1.000  0.000
  0.000  0.000  0.000  0.000  1.000
atom  139   Tr[ns(na)] =   4.00000
    eigenvalues: 
  0.667  0.667  0.667
    eigenvectors:
  1.000  0.000  0.000
  0.000  1.000  0.000
  0.000  0.000  1.000
    occupations:
  0.667  0.000  0.000
  0.000  0.667  0.000
  0.000  0.000  0.667
atom  140   Tr[ns(na)] =   4.00000
    eigenvalues: 
  0.667  0.667  0.667
    eigenvectors:
  1.000  0.000  0.000
  0.000  1.000  0.000
  0.000  0.000  1.000
    occupations:
  0.667  0.000  0.000
  0.000  0.667  0.000
  0.000  0.000  0.667
atom  141   Tr[ns(na)] =  10.00000
    eigenvalues: 
  1.000  1.000  1.000  1.000  1.000
    eigenvectors:
  1.000  0.000  0.000  0.000  0.000
  0.000  1.000  0.000  0.000  0.000
  0.000  0.000  1.000  0.000  0.000
  0.000  0.000  0.000  1.000  0.000
  0.000  0.000  0.000  0.000  1.000
    occupations:
  1.000  0.000  0.000  0.000  0.000
  0.000  1.000  0.000  0.000  0.000
  0.000  0.000  1.000  0.000  0.000
  0.000  0.000  0.000  1.000  0.000
  0.000  0.000  0.000  0.000  1.000
atom  142   Tr[ns(na)] =  10.00000
    eigenvalues: 
  1.000  1.000  1.000  1.000  1.000
    eigenvectors:
  1.000  0.000  0.000  0.000  0.000
  0.000  1.000  0.000  0.000  0.000
  0.000  0.000  1.000  0.000  0.000
  0.000  0.000  0.000  1.000  0.000
  0.000  0.000  0.000  0.000  1.000
    occupations:
  1.000  0.000  0.000  0.000  0.000
  0.000  1.000  0.000  0.000  0.000
  0.000  0.000  1.000  0.000  0.000
  0.000  0.000  0.000  1.000  0.000
  0.000  0.000  0.000  0.000  1.000
atom  143   Tr[ns(na)] =   4.00000
    eigenvalues: 
  0.667  0.667  0.667
    eigenvectors:
  1.000  0.000  0.000
  0.000  1.000  0.000
  0.000  0.000  1.000
    occupations:
  0.667  0.000  0.000
  0.000  0.667  0.000
  0.000  0.000  0.667
atom  144   Tr[ns(na)] =   4.00000
    eigenvalues: 
  0.667  0.667  0.667
    eigenvectors:
  1.000  0.000  0.000
  0.000  1.000  0.000
  0.000  0.000  1.000
    occupations:
  0.667  0.000  0.000
  0.000  0.667  0.000
  0.000  0.000  0.667
atom  145   Tr[ns(na)] =  10.00000
    eigenvalues: 
  1.000  1.000  1.000  1.000  1.000
    eigenvectors:
  1.000  0.000  0.000  0.000  0.000
  0.000  1.000  0.000  0.000  0.000
  0.000  0.000  1.000  0.000  0.000
  0.000  0.000  0.000  1.000  0.000
  0.000  0.000  0.000  0.000  1.000
    occupations:
  1.000  0.000  0.000  0.000  0.000
  0.000  1.000  0.000  0.000  0.000
  0.000  0.000  1.000  0.000  0.000
  0.000  0.000  0.000  1.000  0.000
  0.000  0.000  0.000  0.000  1.000
atom  146   Tr[ns(na)] =  10.00000
    eigenvalues: 
  1.000  1.000  1.000  1.000  1.000
    eigenvectors:
  1.000  0.000  0.000  0.000  0.000
  0.000  1.000  0.000  0.000  0.000
  0.000  0.000  1.000  0.000  0.000
  0.000  0.000  0.000  1.000  0.000
  0.000  0.000  0.000  0.000  1.000
    occupations:
  1.000  0.000  0.000  0.000  0.000
  0.000  1.000  0.000  0.000  0.000
  0.000  0.000  1.000  0.000  0.000
  0.000  0.000  0.000  1.000  0.000
  0.000  0.000  0.000  0.000  1.000
atom  147   Tr[ns(na)] =   4.00000
    eigenvalues: 
  0.667  0.667  0.667
    eigenvectors:
  1.000  0.000  0.000
  0.000  1.000  0.000
  0.000  0.000  1.000
    occupations:
  0.667  0.000  0.000
  0.000  0.667  0.000
  0.000  0.000  0.667
atom  148   Tr[ns(na)] =   4.00000
    eigenvalues: 
  0.667  0.667  0.667
    eigenvectors:
  1.000  0.000  0.000
  0.000  1.000  0.000
  0.000  0.000  1.000
    occupations:
  0.667  0.000  0.000
  0.000  0.667  0.000
  0.000  0.000  0.667
atom  149   Tr[ns(na)] =  10.00000
    eigenvalues: 
  1.000  1.000  1.000  1.000  1.000
    eigenvectors:
  1.000  0.000  0.000  0.000  0.000
  0.000  1.000  0.000  0.000  0.000
  0.000  0.000  1.000  0.000  0.000
  0.000  0.000  0.000  1.000  0.000
  0.000  0.000  0.000  0.000  1.000
    occupations:
  1.000  0.000  0.000  0.000  0.000
  0.000  1.000  0.000  0.000  0.000
  0.000  0.000  1.000  0.000  0.000
  0.000  0.000  0.000  1.000  0.000
  0.000  0.000  0.000  0.000  1.000
atom  150   Tr[ns(na)] =  10.00000
    eigenvalues: 
  1.000  1.000  1.000  1.000  1.000
    eigenvectors:
  1.000  0.000  0.000  0.000  0.000
  0.000  1.000  0.000  0.000  0.000
  0.000  0.000  1.000  0.000  0.000
  0.000  0.000  0.000  1.000  0.000
  0.000  0.000  0.000  0.000  1.000
    occupations:
  1.000  0.000  0.000  0.000  0.000
  0.000  1.000  0.000  0.000  0.000
  0.000  0.000  1.000  0.000  0.000
  0.000  0.000  0.000  1.000  0.000
  0.000  0.000  0.000  0.000  1.000
atom  151   Tr[ns(na)] =   4.00000
    eigenvalues: 
  0.667  0.667  0.667
    eigenvectors:
  1.000  0.000  0.000
  0.000  1.000  0.000
  0.000  0.000  1.000
    occupations:
  0.667  0.000  0.000
  0.000  0.667  0.000
  0.000  0.000  0.667
atom  152   Tr[ns(na)] =   4.00000
    eigenvalues: 
  0.667  0.667  0.667
    eigenvectors:
  1.000  0.000  0.000
  0.000  1.000  0.000
  0.000  0.000  1.000
    occupations:
  0.667  0.000  0.000
  0.000  0.667  0.000
  0.000  0.000  0.667
atom  153   Tr[ns(na)] =  10.00000
    eigenvalues: 
  1.000  1.000  1.000  1.000  1.000
    eigenvectors:
  1.000  0.000  0.000  0.000  0.000
  0.000  1.000  0.000  0.000  0.000
  0.000  0.000  1.000  0.000  0.000
  0.000  0.000  0.000  1.000  0.000
  0.000  0.000  0.000  0.000  1.000
    occupations:
  1.000  0.000  0.000  0.000  0.000
  0.000  1.000  0.000  0.000  0.000
  0.000  0.000  1.000  0.000  0.000
  0.000  0.000  0.000  1.000  0.000
  0.000  0.000  0.000  0.000  1.000
atom  154   Tr[ns(na)] =  10.00000
    eigenvalues: 
  1.000  1.000  1.000  1.000  1.000
    eigenvectors:
  1.000  0.000  0.000  0.000  0.000
  0.000  1.000  0.000  0.000  0.000
  0.000  0.000  1.000  0.000  0.000
  0.000  0.000  0.000  1.000  0.000
  0.000  0.000  0.000  0.000  1.000
    occupations:
  1.000  0.000  0.000  0.000  0.000
  0.000  1.000  0.000  0.000  0.000
  0.000  0.000  1.000  0.000  0.000
  0.000  0.000  0.000  1.000  0.000
  0.000  0.000  0.000  0.000  1.000
atom  155   Tr[ns(na)] =   4.00000
    eigenvalues: 
  0.667  0.667  0.667
    eigenvectors:
  1.000  0.000  0.000
  0.000  1.000  0.000
  0.000  0.000  1.000
    occupations:
  0.667  0.000  0.000
  0.000  0.667  0.000
  0.000  0.000  0.667
atom  156   Tr[ns(na)] =   4.00000
    eigenvalues: 
  0.667  0.667  0.667
    eigenvectors:
  1.000  0.000  0.000
  0.000  1.000  0.000
  0.000  0.000  1.000
    occupations:
  0.667  0.000  0.000
  0.000  0.667  0.000
  0.000  0.000  0.667
atom  157   Tr[ns(na)] =  10.00000
    eigenvalues: 
  1.000  1.000  1.000  1.000  1.000
    eigenvectors:
  1.000  0.000  0.000  0.000  0.000
  0.000  1.000  0.000  0.000  0.000
  0.000  0.000  1.000  0.000  0.000
  0.000  0.000  0.000  1.000  0.000
  0.000  0.000  0.000  0.000  1.000
    occupations:
  1.000  0.000  0.000  0.000  0.000
  0.000  1.000  0.000  0.000  0.000
  0.000  0.000  1.000  0.000  0.000
  0.000  0.000  0.000  1.000  0.000
  0.000  0.000  0.000  0.000  1.000
atom  158   Tr[ns(na)] =  10.00000
    eigenvalues: 
  1.000  1.000  1.000  1.000  1.000
    eigenvectors:
  1.000  0.000  0.000  0.000  0.000
  0.000  1.000  0.000  0.000  0.000
  0.000  0.000  1.000  0.000  0.000
  0.000  0.000  0.000  1.000  0.000
  0.000  0.000  0.000  0.000  1.000
    occupations:
  1.000  0.000  0.000  0.000  0.000
  0.000  1.000  0.000  0.000  0.000
  0.000  0.000  1.000  0.000  0.000
  0.000  0.000  0.000  1.000  0.000
  0.000  0.000  0.000  0.000  1.000
atom  159   Tr[ns(na)] =   4.00000
    eigenvalues: 
  0.667  0.667  0.667
    eigenvectors:
  1.000  0.000  0.000
  0.000  1.000  0.000
  0.000  0.000  1.000
    occupations:
  0.667  0.000  0.000
  0.000  0.667  0.000
  0.000  0.000  0.667
atom  160   Tr[ns(na)] =   4.00000
    eigenvalues: 
  0.667  0.667  0.667
    eigenvectors:
  1.000  0.000  0.000
  0.000  1.000  0.000
  0.000  0.000  1.000
    occupations:
  0.667  0.000  0.000
  0.000  0.667  0.000
  0.000  0.000  0.667
atom  161   Tr[ns(na)] =  10.00000
    eigenvalues: 
  1.000  1.000  1.000  1.000  1.000
    eigenvectors:
  1.000  0.000  0.000  0.000  0.000
  0.000  1.000  0.000  0.000  0.000
  0.000  0.000  1.000  0.000  0.000
  0.000  0.000  0.000  1.000  0.000
  0.000  0.000  0.000  0.000  1.000
    occupations:
  1.000  0.000  0.000  0.000  0.000
  0.000  1.000  0.000  0.000  0.000
  0.000  0.000  1.000  0.000  0.000
  0.000  0.000  0.000  1.000  0.000
  0.000  0.000  0.000  0.000  1.000
atom  162   Tr[ns(na)] =  10.00000
    eigenvalues: 
  1.000  1.000  1.000  1.000  1.000
    eigenvectors:
  1.000  0.000  0.000  0.000  0.000
  0.000  1.000  0.000  0.000  0.000
  0.000  0.000  1.000  0.000  0.000
  0.000  0.000  0.000  1.000  0.000
  0.000  0.000  0.000  0.000  1.000
    occupations:
  1.000  0.000  0.000  0.000  0.000
  0.000  1.000  0.000  0.000  0.000
  0.000  0.000  1.000  0.000  0.000
  0.000  0.000  0.000  1.000  0.000
  0.000  0.000  0.000  0.000  1.000
atom  163   Tr[ns(na)] =   4.00000
    eigenvalues: 
  0.667  0.667  0.667
    eigenvectors:
  1.000  0.000  0.000
  0.000  1.000  0.000
  0.000  0.000  1.000
    occupations:
  0.667  0.000  0.000
  0.000  0.667  0.000
  0.000  0.000  0.667
atom  164   Tr[ns(na)] =   4.00000
    eigenvalues: 
  0.667  0.667  0.667
    eigenvectors:
  1.000  0.000  0.000
  0.000  1.000  0.000
  0.000  0.000  1.000
    occupations:
  0.667  0.000  0.000
  0.000  0.667  0.000
  0.000  0.000  0.667
atom  165   Tr[ns(na)] =  10.00000
    eigenvalues: 
[...]
    eigenvectors:
  0.065  0.211  0.725  0.000  0.000
  0.185  0.063  0.065  0.021  0.666
  0.094  0.178  0.017  0.687  0.024
  0.249  0.420  0.042  0.280  0.009
  0.407  0.128  0.152  0.012  0.301
    occupations:
  0.999 -0.000 -0.000  0.000 -0.000
 -0.000  0.999  0.000  0.000 -0.000
 -0.000  0.000  0.999 -0.000  0.000
  0.000  0.000 -0.000  0.999  0.000
 -0.000 -0.000  0.000  0.000  0.999
atom  190   Tr[ns(na)] =   9.99157
    eigenvalues: 
  0.999  0.999  0.999  1.000  1.000
    eigenvectors:
  0.019  0.001  0.980  0.000  0.000
  0.000  0.313  0.000  0.624  0.063
  0.308  0.000  0.006  0.063  0.623
  0.672  0.000  0.013  0.029  0.285
  0.000  0.686  0.001  0.284  0.029
    occupations:
  0.999 -0.000  0.000 -0.000  0.000
 -0.000  0.999  0.000 -0.000  0.000
  0.000  0.000  0.999  0.001  0.000
 -0.000 -0.000  0.001  0.999  0.000
  0.000  0.000  0.000  0.000  0.999
atom  191   Tr[ns(na)] =   5.75338
    eigenvalues: 
  0.958  0.959  0.960
    eigenvectors:
  0.056  0.024  0.920
  0.157  0.840  0.003
  0.787  0.135  0.078
    occupations:
  0.959  0.000 -0.000
  0.000  0.959 -0.000
 -0.000 -0.000  0.959
atom  192   Tr[ns(na)] =   5.75256
    eigenvalues: 
  0.958  0.959  0.960
    eigenvectors:
  0.000  0.023  0.977
  0.996  0.004  0.000
  0.004  0.973  0.023
    occupations:
  0.960  0.000  0.000
  0.000  0.958  0.000
  0.000  0.000  0.959
atom  193   Tr[ns(na)] =   9.99166
    eigenvalues: 
  0.999  0.999  0.999  1.000  1.000
    eigenvectors:
  0.013  0.003  0.984  0.000  0.000
  0.257  0.044  0.002  0.059  0.638
  0.041  0.264  0.003  0.632  0.060
  0.096  0.590  0.006  0.282  0.026
  0.593  0.099  0.005  0.027  0.277
    occupations:
  0.999  0.000  0.000  0.000  0.000
  0.000  0.999  0.000 -0.000 -0.000
  0.000  0.000  0.999 -0.000 -0.000
  0.000 -0.000 -0.000  0.999 -0.000
  0.000 -0.000 -0.000 -0.000  0.999
atom  194   Tr[ns(na)] =   9.99156
    eigenvalues: 
  0.999  0.999  0.999  1.000  1.000
    eigenvectors:
  0.015  0.027  0.958  0.000  0.000
  0.168  0.132  0.013  0.497  0.189
  0.140  0.171  0.000  0.191  0.497
  0.308  0.378  0.001  0.086  0.226
  0.368  0.291  0.028  0.226  0.088
    occupations:
  0.999  0.000  0.000  0.000 -0.000
  0.000  0.999  0.000 -0.000  0.000
  0.000  0.000  0.999  0.000 -0.000
  0.000 -0.000  0.000  0.999  0.000
 -0.000  0.000 -0.000  0.000  0.999
atom  195   Tr[ns(na)] =   5.75368
    eigenvalues: 
  0.959  0.959  0.960
    eigenvectors:
  0.000  0.000  1.000
  0.164  0.836  0.000
  0.836  0.164  0.000
    occupations:
  0.960  0.000  0.000
  0.000  0.959  0.000
  0.000  0.000  0.959
atom  196   Tr[ns(na)] =   5.75329
    eigenvalues: 
  0.958  0.959  0.960
    eigenvectors:
  0.020  0.002  0.978
  0.933  0.051  0.016
  0.048  0.946  0.006
    occupations:
  0.960 -0.000  0.000
 -0.000  0.958  0.000
  0.000  0.000  0.959
atom  197   Tr[ns(na)] =   9.99156
    eigenvalues: 
  0.999  0.999  0.999  1.000  1.000
    eigenvectors:
  0.005  0.003  0.993  0.000  0.000
  0.297  0.017  0.001  0.682  0.003
  0.016  0.295  0.001  0.003  0.685
  0.036  0.649  0.003  0.001  0.311
  0.646  0.037  0.002  0.314  0.001
    occupations:
  0.999  0.000  0.000  0.000  0.000
  0.000  0.999 -0.000 -0.000 -0.001
  0.000 -0.000  0.999 -0.000 -0.000
  0.000 -0.000 -0.000  0.999 -0.000
  0.000 -0.001 -0.000 -0.000  0.999
atom  198   Tr[ns(na)] =   9.99154
    eigenvalues: 
  0.999  0.999  0.999  1.000  1.000
    eigenvectors:
  0.020  0.010  0.970  0.000  0.000
  0.199  0.103  0.010  0.274  0.413
  0.110  0.202  0.000  0.411  0.278
  0.235  0.453  0.000  0.187  0.124
  0.436  0.231  0.020  0.128  0.185
    occupations:
  0.999  0.000 -0.000  0.000 -0.000
  0.000  0.999  0.000 -0.000  0.000
 -0.000  0.000  0.999  0.000 -0.000
  0.000 -0.000  0.000  0.999  0.000
 -0.000  0.000 -0.000  0.000  0.999
atom  199   Tr[ns(na)] =   5.75353
    eigenvalues: 
  0.959  0.959  0.959
    eigenvectors:
  0.001  0.002  0.997
  0.686  0.311  0.003
  0.313  0.687  0.000
    occupations:
  0.959 -0.000 -0.000
 -0.000  0.959  0.000
 -0.000  0.000  0.959
atom  200   Tr[ns(na)] =   5.75345
    eigenvalues: 
  0.958  0.959  0.960
    eigenvectors:
  0.036  0.008  0.956
  0.560  0.399  0.041
  0.404  0.593  0.003
    occupations:
  0.959 -0.000 -0.000
 -0.000  0.959 -0.000
 -0.000 -0.000  0.959
N of occupied +U levels = 1554.654901
 --- exit write_ns ---

          k = 0.0000 0.0000 0.0000 ( 15601 PWs)   bands (ev):

   -10.5573 -10.5427  -9.9229  -9.9125  -9.9091  -9.8985  -9.8961  -9.8864
    -9.7328  -9.7101  -9.6870  -9.6571  -9.6454  -9.6325  -9.6243  -9.6223
    -9.5895  -9.5888  -9.5808  -9.5787  -9.5668  -9.5650  -9.5525  -9.5430
    -9.5371  -9.5286  -9.5246  -9.5183  -9.5138  -9.5122  -9.5058  -9.5017
    -9.5007  -9.4924  -9.4898  -9.4802  -9.4801  -9.4771  -9.4585  -9.4584
    -9.4562  -9.4549  -9.4505  -9.4471  -9.4434  -9.4362  -9.4335  -9.4311
    -9.4223  -9.4206  -9.4170  -9.4116  -9.4098  -9.4030  -9.4017  -9.4013
    -9.3993  -9.3888  -9.3836  -9.3775  -9.3717  -9.3698  -9.3618  -9.3582
    -9.3500  -9.3462  -9.3425  -9.3342  -9.3280  -9.3189  -9.3162  -9.3159
    -9.3117  -9.3071  -9.3029  -9.2907  -9.2891  -9.2814  -9.2776  -9.2758
    -9.2715  -9.2690  -9.2581  -9.2544  -9.2521  -9.2417  -9.2301  -9.2238
    -9.2217  -9.2189  -9.2167  -9.2091  -9.2020  -9.1883  -9.1770  -9.1768
    -9.1763  -9.1702  -9.1571  -9.1515  -3.1685  -3.1587  -2.9865  -2.9759
    -2.9671  -2.9549  -2.9424  -2.9405  -2.9191  -2.9075  -2.8924  -2.8822
    -2.8579  -2.8450  -2.8424  -2.8374  -2.8251  -2.8223  -2.8108  -2.8101
    -2.8001  -2.7913  -2.7771  -2.7721  -2.7604  -2.7563  -2.7442  -2.7363
    -2.7271  -2.7210  -2.7151  -2.7112  -2.7086  -2.7060  -2.7018  -2.7007
    -2.6952  -2.6830  -2.6826  -2.6747  -2.6742  -2.6711  -2.6699  -2.6626
    -2.6513  -2.6446  -2.6435  -2.6359  -2.6355  -2.6306  -2.6276  -2.6179
    -2.6154  -2.6124  -2.6100  -2.6009  -2.6001  -2.5991  -2.5857  -2.5779
    -2.5741  -2.5729  -2.5580  -2.5511  -2.5503  -2.5457  -2.5434  -2.5305
    -2.5249  -2.5176  -2.5113  -2.4986  -2.4897  -2.4831  -2.4766  -2.4699
    -2.4661  -2.4549  -2.4475  -2.4469  -2.4403  -2.4285  -2.4164  -2.4159
    -2.4090  -2.4022  -2.3826  -2.3730  -2.3689  -2.3687  -2.3596  -2.3483
    -2.3457  -2.3351  -2.3242  -2.3221  -2.3157  -2.3129  -2.3090  -2.3032
    -2.2870  -2.2834  -2.2825  -2.2807  -2.2758  -2.2707  -2.2659  -2.2640
    -2.2553  -2.2485  -2.2479  -2.2375  -2.2354  -2.2313  -2.2288  -2.2263
    -2.2196  -2.2163  -2.2155  -2.2092  -2.2076  -2.2057  -2.1959  -2.1936
    -2.1933  -2.1921  -2.1902  -2.1808  -2.1773  -2.1747  -2.1692  -2.1681
    -2.1602  -2.1583  -2.1565  -2.1524  -2.1472  -2.1467  -2.1406  -2.1331
    -2.1277  -2.1232  -2.1232  -2.1165  -2.1116  -2.1052  -2.1041  -2.0966
    -2.0943  -2.0935  -2.0913  -2.0897  -2.0847  -2.0794  -2.0776  -2.0754
    -2.0700  -2.0640  -2.0637  -2.0598  -2.0591  -2.0541  -2.0470  -2.0455
    -2.0440  -2.0417  -2.0375  -2.0370  -2.0225  -2.0195  -2.0137  -2.0136
    -2.0114  -1.9987  -1.9915  -1.9889  -1.9759  -1.9745  -1.9704  -1.9667
    -1.9644  -1.9594  -1.9573  -1.9535  -1.9473  -1.9421  -1.9347  -1.9271
    -1.9267  -1.9233  -1.9211  -1.9187  -1.9107  -1.9021  -1.8950  -1.8767
    -1.8733  -1.8664  -1.8649  -1.8614  -1.8609  -1.8546  -1.8525  -1.8498
    -1.8433  -1.8373  -1.8365  -1.8320  -1.8293  -1.8239  -1.8107  -1.8081
    -1.8023  -1.7938  -1.7919  -1.7836  -1.7759  -1.7743  -1.7736  -1.7617
    -1.7549  -1.7476  -1.7474  -1.7405  -1.7341  -1.7330  -1.7222  -1.7123
    -1.7032  -1.6950  -1.6943  -1.6879  -1.6793  -1.6651  -1.6609  -1.6570
    -1.6452  -1.6381  -1.6222  -1.6218  -1.6124  -1.6076  -1.6032  -1.5952
    -1.5922  -1.5855  -1.5804  -1.5730  -1.5722  -1.5668  -1.5663  -1.5633
    -1.5630  -1.5539  -1.5533  -1.5430  -1.5367  -1.5320  -1.5302  -1.5233
    -1.5219  -1.5178  -1.5126  -1.5111  -1.5063  -1.5029  -1.4957  -1.4940
    -1.4899  -1.4889  -1.4831  -1.4829  -1.4813  -1.4797  -1.4781  -1.4713
    -1.4710  -1.4656  -1.4585  -1.4488  -1.4488  -1.4466  -1.4412  -1.4309
    -1.4255  -1.4240  -1.4237  -1.4150  -1.4019  -1.4007  -1.3892  -1.3886
    -1.3858  -1.3841  -1.3740  -1.3693  -1.3614  -1.3559  -1.3434  -1.3397
    -1.3396  -1.3276  -1.3256  -1.3186  -1.2997  -1.2940  -1.2927  -1.2726
    -1.2644  -1.2624  -1.2571  -1.2475  -1.2463  -1.2389  -1.2363  -1.2264
    -1.2184  -1.2150  -1.2070  -1.1928  -1.1926  -1.1860  -1.1760  -1.1739
    -1.1694  -1.1659  -1.1630  -1.1620  -1.1577  -1.1562  -1.1510  -1.1465
    -1.1422  -1.1393  -1.1335  -1.1325  -1.1284  -1.1284  -1.1221  -1.1204
    -1.1178  -1.1136  -1.1109  -1.1045  -1.1013  -1.0999  -1.0959  -1.0890
    -1.0858  -1.0787  -1.0782  -1.0775  -1.0698  -1.0691  -1.0670  -1.0594
    -1.0567  -1.0534  -1.0491  -1.0405  -1.0403  -1.0363  -1.0334  -1.0240
    -1.0231  -1.0170  -1.0160  -1.0110  -1.0091  -1.0059  -1.0042  -1.0018
    -0.9973  -0.9950  -0.9918  -0.9822  -0.9797  -0.9796  -0.9722  -0.9671
    -0.9582  -0.9510  -0.9507  -0.9464  -0.9437  -0.9391  -0.9355  -0.9332
    -0.9281  -0.9266  -0.9221  -0.9186  -0.9178  -0.9164  -0.9142  -0.9127
    -0.9123  -0.9068  -0.9054  -0.9036  -0.8882  -0.8875  -0.8833  -0.8801
    -0.8765  -0.8644  -0.8610  -0.8591  -0.8539  -0.8535  -0.8476  -0.8457
    -0.8412  -0.8366  -0.8321  -0.8281  -0.8221  -0.8176  -0.8125  -0.8112
    -0.7985  -0.7946  -0.7942  -0.7793  -0.7727  -0.7621  -0.7527  -0.7417
    -0.7327  -0.7215  -0.7195  -0.7107  -0.6755  -0.6738  -0.6631  -0.6621
    -0.6450  -0.6370  -0.6237  -0.6225  -0.6087  -0.5829  -0.5770  -0.5589
    -0.5488  -0.5410  -0.5313  -0.5278  -0.5199  -0.4985  -0.4912  -0.4813
    -0.4542  -0.4379  -0.4355  -0.4274  -0.3752  -0.3671  -0.3404  -0.3294
    -0.2528  -0.2300  -0.2215  -0.2129  -0.1978  -0.1865  -0.1553  -0.1400
    -0.1366  -0.1267  -0.1238  -0.1056  -0.0827  -0.0803  -0.0719  -0.0429
    -0.0388  -0.0315  -0.0093   0.0029   0.0114   0.0220   0.0304   0.0368
     0.0689   0.0861   0.1636   0.1673   0.1737   0.1868   0.2015   0.2223
     0.3464   0.4200   0.4274   0.4343   0.4856   0.5432   0.5711   0.7498
     0.8264   0.8365   0.8653   0.8739   0.8972   0.9216   0.9399   0.9660
     0.9983   1.0160   1.0259   1.0269   1.0508   1.0518   1.0758   1.0857
     1.0867   1.0929   1.1125   1.1222   1.1265   1.1484   1.1577   1.1624
     1.1660   1.1685   1.1971   1.2260   1.2409   1.2836   1.2998   1.3020
     1.3343   1.3426   1.3789   1.3965   1.4222   1.4525   1.4706   1.4767
     1.5145   1.5232   1.5691   1.5772   1.5808   1.6595   1.6682   1.6986
     1.7158   1.7334   1.7673   1.7772   1.8106   1.8411   1.8507   1.8543
     1.8887   1.9177   1.9392   1.9565   2.0072   2.0413   2.0475   2.0898
     2.1144   2.1405   2.1454   2.1490   2.1847   2.2156   2.2172   2.2374
     2.3132   2.3466   2.3863   2.4072   2.4164   2.4254   2.4694   2.4824
     2.5080   2.5248   2.5256   2.5868   2.6138   2.6465   2.6541   2.6704
     2.7098   2.8127   2.8200   2.8322   2.8391   2.8917   2.9110   2.9416
     2.9498   2.9550   2.9746   2.9869   3.0333   3.0407   3.0529   3.0651
     3.0803   3.0874   3.0875   3.0922   3.1011   3.1109   3.1296   3.1354
     3.1517   3.1570   3.1653   3.1752   3.1828   3.2245   3.2701   3.2762
     3.3079   3.3271   3.3417   3.3511   3.3716   3.3771   3.3960   3.3963
     3.4391   3.4587   3.4636   3.4755   3.4989   3.5002   3.5154   3.5329
     3.5553   3.5781   3.6235   3.6607   3.6617   3.7229   3.8065   3.8290
     3.8324   3.8711   3.8746   3.8824   3.9010   3.9140   3.9195   3.9378
     3.9579   3.9801   3.9885   4.0257   4.0398   4.0421   4.0540   4.0690
     4.1044   4.1213   4.1418   4.1675   4.1775   4.2007   4.2077   4.2160
     4.2238   4.2524   4.2697   4.2716   4.2871   4.3045   4.3156   4.3248
     4.3323   4.3435   4.3568   4.3574   4.3632   4.3714   4.3754   4.3836
     4.3884   4.3948   4.3995   4.3997   4.4050   4.4235   4.4395   4.4428
     4.4511   4.4527   4.4582   4.4634   4.4681   4.4776   4.4881   4.4885
     4.4925   4.5013   4.5020   4.5085   4.5120   4.5242   4.5357   4.5368
     4.5507   4.5607   4.5633   4.5685   4.5741   4.5813   4.5834   4.5932
     4.6041   4.6052   4.6191   4.6232   4.6238   4.6259   4.6304   4.6396
     4.6469   4.6606   4.6637   4.6720   4.6745   4.6761   4.6800   4.7002
     4.7100   4.7200   4.7262   4.7336   4.7425   4.7498   4.7912   4.8044
     4.8300   4.8499   4.8883   4.8984   4.9198   4.9311   4.9459   4.9630
     4.9752   5.0052   5.0113   5.0265   5.0441   5.0513   5.0580   5.0599
     5.0800   5.0877   5.1033   5.1152   5.1372   5.1404   5.1470   5.1480
     5.1518   5.1599   5.1613   5.1805   5.1859   5.1889   5.2070   5.4011
     5.4812   5.5468   5.5505   5.5740   5.6012   5.6253   5.6523   5.6698
     5.6873   5.6937   5.7205   5.7240   5.7391   5.7478   5.7848   5.9980
     6.0553   6.0890   9.6233  11.2946  11.3125  11.3608  11.3853  11.4321
    11.4458  12.2219  12.2653  13.0901  13.1408  13.2038  13.2084  13.2112
    13.2297  13.2601  13.2804  13.2935  13.2950  13.3310  13.3471  13.4494
    13.4642  13.5000  13.5001  13.5122  13.5126  13.8513  13.8839  13.9073
    13.9175  13.9368  13.9630  14.1102  14.1716  14.1925  14.2314  14.2785
    14.2892  14.3045  14.3155  14.3313  14.3345  14.3465  14.3833  14.4126
    14.4420  14.4818  14.4829  14.5102  14.5110  14.5257  14.5376  14.5424
    14.5449  14.5569  14.5586  14.5921  15.3752  15.4136  15.4225  15.4463
    15.4475  15.4896  15.5153  15.5170  15.5321  15.5349  15.5508  15.5540
    15.5549  15.5728  15.6001  15.6063  15.6073  15.6182  15.6456  15.7029
    15.7165  15.7201  15.7512  15.8130  16.0206  16.0583  16.0818  16.0913
    16.1501  16.1852  16.2028  16.2304  16.2445  16.2471  16.2667  16.2900
    16.3098  16.3223  16.3393  16.3702  16.4114  16.4143  16.4228  16.4371
    16.4378  16.4439  16.4994  16.5086  16.5136  16.5200  16.5254  16.5354
    16.5397  16.5675  16.9310  16.9851  16.9882  17.0663  17.0903  17.1104
    17.2518  17.2695  17.2801  17.2977  17.3415  17.3550  17.3881  17.4078
    17.4320  17.4600  17.4719  17.4878  17.4999  17.5128  17.5187  17.5301
    17.5507  17.5582  17.5648  17.5776  17.5833  17.5859  17.5931  17.6064
    17.6207  17.6217  17.6422  17.6552  17.6596  17.6706  17.6807  17.6896
    17.6954  17.6961  17.7052  17.7112  17.7161  17.7203  17.7243  17.7409
    17.7461  17.7692  17.7724  17.7879  17.7958  17.8173  17.8423  17.8982
    17.9077  17.9137  17.9381  17.9826  18.0017  18.0166  18.0322  18.0433
    18.0504  18.0545  18.0709  18.1484  18.2551  18.5216  18.5241  18.5606
    18.5880  18.6216  18.6286  18.6306  18.6404  18.6548  18.6601  18.6814
    18.6835  18.6866  18.7012  18.7085  18.7156  18.7159  18.7217  18.7288
    18.7348  18.7473  18.7720  18.8589  18.9473  18.9955  19.0261  19.1426
    19.1618  19.1744  19.1906  19.1980  19.2055  19.4824  19.5283  19.5498
    19.6109  19.6258  19.6412  19.6528  19.6715  19.6739  19.6847  19.7123
    19.7321  19.7440  19.7513  19.7673  19.7689  19.7991  19.8423  19.8588
    19.8593  19.8933  19.9021  19.9059  19.9272  19.9322  19.9439  19.9506
    19.9657  19.9816  19.9933  20.0971  20.1862  20.2060  20.2405  20.2579
    20.2910  20.3157  20.3173  20.3411  20.3537  20.3592  20.3900  20.4358
    20.4493  20.4659  20.5005  20.5046  20.5179  20.5737  20.6379  20.6736
    20.6767  20.6885  20.6943  20.7156  20.7369  20.7442  20.7628  20.7632
    20.7887  20.8174  20.8421  20.8916  20.9136  20.9200  20.9491  21.0090
    21.0115  21.0318  21.0688  21.0867  21.1205  21.1708  21.1885  21.2107
    21.2414  21.2515  21.2721  21.2973  21.3007  21.3041  21.3182  21.3200
    21.3234  21.6624  21.6756  21.6856  21.7025  21.7507  21.7534  21.8217
    21.8271  21.9421  22.0027  22.0718  22.1418  22.1447  22.1581  22.1766
    22.2111  22.2704  22.2745  22.2893  22.3005  22.3200  22.3471  22.3481
    22.3765  22.4022  22.4408  22.4463  22.4512  22.4674  22.4757  22.4874
    22.5216  22.5337  22.5475  22.5530  22.5703  22.5812  22.5869  22.5931
    22.6098  22.6331  22.6443  22.6542  22.6681  22.6806  22.6945  22.6983
    22.7168  22.7229  22.7272  22.7408  22.7524  22.7528  22.7673  22.7747
    22.7827  22.7903  22.7905  22.7930  22.7979  22.8127  22.8179  22.8264
    22.8347  22.8400  22.8488  22.8516  22.8636  22.8752  22.8899  22.9149
    22.9351  23.1534  23.2133  23.2604  23.3102  23.3652  23.4119  23.4133
    23.4158  23.4443  23.4466  23.4768  23.4987  23.5206  23.5471  23.5698
    23.5873  23.6211  23.6314  23.7189  23.7399  23.7621  23.7757  23.7921
    23.7950  23.8174  23.8219  23.8421  24.0247  24.0857  24.1099  24.1178
    24.1462  24.1957  24.3250  24.4126  24.4639  24.4821  24.5298  24.5528
    24.6973  24.7215  24.7256  24.7596  24.7718  24.7793  24.8857  24.9305
    24.9390  24.9887  25.0076  25.0547  25.0677  25.1036  25.1294  25.1766
    25.1841  25.1916  25.2428  25.2575  25.2652  25.2777  25.2918  25.3323

     highest occupied, lowest unoccupied level (ev):     6.0890    9.6233

!    total energy              =  -15602.41009178 Ry
     Harris-Foulkes estimate   =  -15602.41009190 Ry
     estimated scf accuracy    <       0.00000021 Ry

     The total energy is the sum of the following terms:

     one-electron contribution =   -7898.26943209 Ry
     hartree contribution      =    5812.32300249 Ry
     xc contribution           =   -2548.01016951 Ry
     ewald contribution        =  -10974.82117224 Ry
     Hubbard energy            =       6.36767957 Ry

     convergence has been achieved in   9 iterations

     Writing output data file espresso.save

     init_run     :     35.25s CPU     44.72s WALL (       1 calls)
     electrons    :   1090.88s CPU   1215.92s WALL (       1 calls)

     Called by init_run:
     wfcinit      :     26.27s CPU     33.37s WALL (       1 calls)
     potinit      :      3.80s CPU      4.84s WALL (       1 calls)

     Called by electrons:
     c_bands      :   1019.83s CPU   1127.61s WALL (       9 calls)
     sum_band     :     60.84s CPU     75.00s WALL (       9 calls)
     v_of_rho     :      2.72s CPU      3.70s WALL (      10 calls)
     newd         :      7.81s CPU      9.60s WALL (      10 calls)
     mix_rho      :      0.38s CPU      0.59s WALL (       9 calls)

     Called by c_bands:
     init_us_2    :      0.77s CPU      0.98s WALL (      20 calls)
     regterg      :   1017.47s CPU   1122.53s WALL (       9 calls)

     Called by sum_band:
     sum_band:bec :      0.20s CPU      0.28s WALL (       9 calls)
     addusdens    :      8.02s CPU     10.54s WALL (       9 calls)

     Called by *egterg:
     h_psi        :    326.95s CPU    390.80s WALL (      45 calls)
     s_psi        :     48.47s CPU     56.17s WALL (      46 calls)
     g_psi        :      0.12s CPU      0.14s WALL (      35 calls)
     rdiaghg      :    516.80s CPU    520.89s WALL (      44 calls)

     Called by h_psi:
     h_psi:pot    :    181.58s CPU    219.58s WALL (      45 calls)
     h_psi:calbec :     45.19s CPU     55.33s WALL (      45 calls)
     vloc_psi     :     90.86s CPU    110.56s WALL (      45 calls)
     add_vuspsi   :     45.53s CPU     53.70s WALL (      45 calls)
     vhpsi        :    144.92s CPU    170.59s WALL (      45 calls)

     General routines
     calbec       :     84.55s CPU    104.65s WALL (     109 calls)
     fft          :      2.50s CPU      3.82s WALL (     155 calls)
     ffts         :      0.06s CPU      0.24s WALL (      19 calls)
     fftw         :     69.80s CPU     86.49s WALL (   36316 calls)
     interpolate  :      0.36s CPU      0.80s WALL (      19 calls)

     Parallel routines
     fft_scatter  :     32.12s CPU     43.67s WALL (   36490 calls)

     Hubbard U routines
     new_ns       :      6.03s CPU      7.04s WALL (       9 calls)
     vhpsi        :    144.92s CPU    170.59s WALL (      45 calls)

     PWSCF        : 18m46.36s CPU    21m 2.35s WALL


   This run was terminated on:   6:31:39  12Jan2023            

=------------------------------------------------------------------------------=
   JOB DONE.
=------------------------------------------------------------------------------=
